
 *******************************************************************************
 *                                                                             *
 *  -------------------------------------                                      *
 *   Amsterdam Density Functional  (ADF)         2019                          *
 *  -------------------------------------                                      *
 *                                               r74351 2019-04-25             *
 *                                                                             *
 *                                                                             *
 *                            =====================                            *
 *                            |                   |                            *
 *                            |     D I R A C     |                            *
 *                            |                   |                            *
 *                            =====================                            *
 *                                                                             *
 *                                                                             *
 *   Online information and documentation:  https://www.scm.com/support/       *
 *   E-mail:  support@scm.com   info@scm.com                                   *
 *                                                                             *
 *   Scientific publications using ADF results must be properly referenced     *
 *   See the User Manuals (or the web site) for recommended citations          *
 *   The terms and conditions of the End User License Agreement apply to       *
 *   the use of ADF, https://www.scm.com/license-terms/                        *
 *                                                                             *
 **********************  x86_64_linux_intel / intelmpi  ************************
 
 Licensed to: Dr. Emilie Guidez / UC Denver / Denver / CO / USA
 SCM User ID: u20218
  
 DIRAC 2019  RunTime: Feb04-2021 20:25:22  Nodes: 1  Procs: 1

 Temporary files are created in /home/chemistry/limjae/scr/kid_0.1051405712

1
 HYDROGEN ATOM RELATIVISTIC, Point Nuc, A and c from libtc   
 N J RN H ZN XION ANUC CLIGHT
 5000    1100.00000000197.36710137  1.00000000  0.00000000    1.007825  0.1370360E+03
  PH   PHI     EPS        DEL        DELRVR
  0.30  0.30     2500.00  0.00001000  0.00001000
 IDIRC  NC1  NDEBU NPRIN  IPUN IRCOR IWCOR
   1   300     0     0     0     0     0
   XALPHA      XLATTER      RNUC
  0.70000000  0.00000000  0.00000000 Point Charge
   XN   XL   XJ      XE          XZ      XDELL
  1.0  0.0  0.5      -1.000       1.000     0.00000
 ICORP=  0  NPCL=  0  DEMP=0.00  PEPS=0.000000
 R(1)=  0.1000000E-08 D=  0.1005080E+01 RNUC=  0.0000000E+00
 converged at cycle   32  DENSITY AVERAGING    0.2400
  MAXIMUM ERROR IN R.V(R) IS   0.79874357E-05
 Q,EY,EV,EZ,ESUM,ETOT,RHO  0.100000E+01 -0.266614E+00 -0.619969E+00 -0.910779E+00 -0.203940E+00 -0.415998E+00  0.337036E-17


 DIRAC CALCULATION
1                    HYDROGEN ATOM RELATIVISTIC, Point Nuc, A and c from libtc


 EXCHANGE COEFFICIENT=  0.7000000           TAIL CORRECTION=  0.           NUCLEAR RADIUS=  0.000E+00
0                       ORBITAL    N    L    J     ELECTRONS     EIGENVALUE                DELTA OF EIGENV.

                          1S1/2  1.0  0.0  0.5     1.000       -0.2039397E+00                 0.2720093E-06


                                        NUCLEAR CHARGE=    1.000000
                            INTEGRAL OF CHARGE DENSITY=    1.000000
                           SUM OF THE ORBITAL ENERGIES=     -0.2039
                                          TOTAL ENERGY=     -0.4160
                                        KINETIC ENERGY=      0.4160
                             NUCLEAR ATTRACTION ENERGY=     -0.9108
                             ELECTRON REPULSION ENERGY=      0.2787
                                       EXCHANGE ENERGY=     -0.2000

 *******************************************************************************

                             D I R A C   E X I T
 NORMAL TERMINATION



 =================
 Timing Statistics
 =================
  
 Total Used :                     CPU=        0.07      System=        0.01     Elapsed=        0.12

 Calls  Section                     ( Mean, Percentage )
 ---------------------------------------------------------------------------------------------------
     2  ><      ................      0.00    0.01             0.00    0.18             0.00    0.02
     1  EXIT PROCEDURE .........      0.07   99.99             0.01   99.82             0.12   99.98


 Currently Open Files (EXIT00)
 ====================

 Unit    Access Format  Status   Type       Ident (file)
 -------------------------------------------------------
   3      SEQ    FORM   TRANSP  NORMAL      LOGFILE
                                          ( logfile )
 
Create H   file=DZ-H
XC
 GGA PBE
End
relativistic ZORA
Corepotentials t12.rel
End

 *******************************************************************************
 *                                                                             *
 *  -------------------------------------                                      *
 *   Amsterdam Density Functional  (ADF)         2019                          *
 *  -------------------------------------                                      *
 *                                               r74351 2019-04-25             *
 *                                                                             *
 *                                                                             *
 *                              =================                              *
 *                              |               |                              *
 *                              |     A D F     |                              *
 *                              |               |                              *
 *                              =================                              *
 *                                                                             *
 *                                                                             *
 *   Online information and documentation:  https://www.scm.com/support/       *
 *   E-mail:  support@scm.com   info@scm.com                                   *
 *                                                                             *
 *   Scientific publications using ADF results must be properly referenced     *
 *   See the User Manuals (or the web site) for recommended citations          *
 *   The terms and conditions of the End User License Agreement apply to       *
 *   the use of ADF, https://www.scm.com/license-terms/                        *
 *                                                                             *
 **********************  x86_64_linux_intel / intelmpi  ************************
 
 Licensed to: Dr. Emilie Guidez / UC Denver / Denver / CO / USA
 SCM User ID: u20218
  
 ADF 2019  RunTime: Feb04-2021 20:25:22  Nodes: 1  Procs: 1

 Temporary files are created in /home/chemistry/limjae/scr/kid_0.1769562700

 Hydrogen (DZ)



 ===========================
 A T T A C H E D   F I L E S
 ===========================
  
 CREATE - Data File:    DZ-H
                        Hydrogen (DZ)
 Core Potentials:
         file : t12.rel



 ===============================
 M O D E L   P A R A M E T E R S
 ===============================
  
 DENSITY FUNCTIONAL POTENTIAL (scf)
    LDA:                               PW92                                    == Not Default ==
    Gradient Corrections:              PBEc PBEx                               == Not Default ==

 SPIN  (restricted / unrestr.)
    Molecule:                          Restricted                               

 OTHER ASPECTS
    Relativistic Corrections:          scalar (ZORA,MAPA)                      == Not Default ==

    Nuclear Charge Density Model:      Point Charge Nuclei                      
    Core Treatment:                    Frozen Orbital(s)                        

    Hyperfine or Zeeman Interaction:   ---                                      



 =====================================
 S Y M M E T R Y ,   E L E C T R O N S
 =====================================
  
 Symmetry: ATOM

 Irreducible Representations, including subspecies
 -------------------------------------------------
 S
 P:x  P:y  P:z
 D:z2  D:x2-y2  D:xy  D:xz  D:yz
 F:z3  F:z  F:xyz  F:z2x  F:z2y  F:x  F:y


 Configuration of Valence Electrons
 ==================================

          Occupation Numbers
          -------------------------------------------------
 S        1
 P        0
 D        0
 F        0
          -------------------------------------------------

 Total:   1

 Net Charge: 0 (Nuclei minus Electrons)

 Preset values for MO occupations will be applied through SCF cycle no. 1000000
 Thereafter, the program will assign electrons to MOs that are spatially
 similar to the occupied MOs in a "reference" cycle ("KeepOrbitals").
 The reference cycle is always the PREVIOUS cycle: it will evolve with
 the SCF procedure.



 ================================
 (Slater-type)  F U N C T I O N S  ***  (Basis and Fit)  ***
 ================================
  

 Atom Type    1  (H)
 ==============

 Valence Basis Sets:   2
 -----------------------
   1 S    0.760000
   1 S    1.280000


 BAS: List of all Elementary Cartesian Basis Functions
 =====================================================

 The numbering in the list below (to the right of the function characteristics) is referred
 to in print-outs of MO eigenvectors and Mulliken populations in the BAS representation
 (as contrasted to the SFO representation).

 Notes:
 1. The functions are characterized by a polynomial prefactor (powers of x,y,z and r) and
    an exponential decay factor alpha.
 2. Since the basis sets are specific for an atom TYPE, the individual functions occur on
    all atoms of that type.
 3. The word 'Core' in the left margin signals that it is a Core Function (CF) : not a
    degree of freedom in the valence set, but only used to ensure orthogonalization of
    the other valence basis functions on the frozen Core Orbitals.


 (power of) X  Y  Z  R     Alpha  on Atom
            ==========     =====     ==========

 H                                    1
                                  ---------------------------------------------------------------------------
            0  0  0  0     0.760      1
            0  0  0  0     1.280      2

 Total number of charge fitting functions (nprimf)        50
 Total number of Cartesian basis functions (naos)          2
 Total number of Cartesian core functions  (ncos)          0



 BAS: List of all Elementary Cartesian Basis Functions
 =====================================================

 The numbering in the list below (to the right of the function characteristics) is referred
 to in print-outs of MO eigenvectors and Mulliken populations in the BAS representation
 (as contrasted to the SFO representation).

 Notes:
 1. The functions are characterized by a polynomial prefactor (powers of x,y,z and r) and
    an exponential decay factor alpha.
 2. Since the basis sets are specific for an atom TYPE, the individual functions occur on
    all atoms of that type.
 3. The word 'Core' in the left margin signals that it is a Core Function (CF) : not a
    degree of freedom in the valence set, but only used to ensure orthogonalization of
    the other valence basis functions on the frozen Core Orbitals.


 (power of) X  Y  Z  R     Alpha  on Atom
            ==========     =====     ==========

 H                                    1
                                  ---------------------------------------------------------------------------
            0  0  0  0     0.760      1
            0  0  0  0     1.280      2
1
 ***************************************************************************************************



                                              ***********************
                                              *  T E C H N I C A L  *
                                              ***********************
  



 =============================================================
 P A R A L L E L I Z A T I O N  and  V E C T O R I Z A T I O N
 =============================================================
  
 Nr of parallel processes:                                1
 Maximum vector length in NumInt loops:                 128



 =====================
 S C F   U P D A T E S
 =====================
  
 Max. nr. of cycles:                               300
 Convergence criterion:                              0.0000000100
   secondary criterion:                              0.0000000100

 Mix parameter (when DIIS does not apply):           0.2000000000
 Special mix parameter for the first cycle:          1.0000000000
 Mixed ADIIS+SDIIS will be used                  
    Max number of expansion vectors:                10
    Pure ADIIS when Max([F,P]) is above              0.1000000000
    Pure SDIIS when Max([F,P]) is below              0.0010000000
 Automatic ElectronSmearing (in case of problematic SCF convergence) disabled



 =================
 P R E C I S I O N  ***  (General: NumInt, NeglectFunctionTails, ...)  ***
 =================
  

 NumInt:           Target precision:                12.0000000000
 -------           Initial precision:               10.0000000000
                   Min. precision (optimization):   10.0000000000

 Neglect Functions:          Basis functions:        0.1000000000E-13
 ------------------          Fit functions:          0.1000000000E-13



 ===========================
 L I N E A R   S C A L I N G
 ===========================
  

 Cut-off radii density fit:                        0.1000000000E-97
 Overlap cut-off criterion AO matrix elements:     0.1000000000E-97
 Cut-offs for Coulomb potential and fitted density:0.1000000000E-97
 Cut-off criterion for Coulomb multipole terms:    0.1000000000E-97
 Progressive Convergence parameter:                 0.000000000    
1
 ***************************************************************************************************



                                            ***************************
                                            *  C O M P U T A T I O N  *
                                            ***************************
  

 Number of elements of the density matrix on this node (used, total):         3         3



 ===========================================
 Numerical Integration : Fuzzy Cells (Becke)
 ===========================================
  
 Becke grid quality: VERYGOOD       
  
 Lebedev angular grid order:             min:  13 max:  41
 Nr. of radial points:                   min:  64 max:  64

 Total nr. of points:         64
 Nr. of blocks:                1
 Block length:                64
 Nr. of dummy points:          0


 Test of Precision of the Numerical Integration Grid
 ===================================================

 Integral of the Total Core Density:                   0.00000000000000



 ========================
 Density Fitting (zlmFit)
 ========================
  
 ZlmFit Fit Quality: VERYGOOD       
  
 Max L-expansion:                        min:   0 max:   0
 Nr. of radial interpolation points:     min: 120 max: 120



 =====
 S C F  ***  ScaSCF  ***
 =====
  

 CYCLE    1
 SCF Error: norm([F,P])=      0.000000000000, max([F,P])=      0.000000000000
 orbitals (Q,E):
 ---------------
 S :1...2            ( 1.00    -0.4983)  ( 0.00     0.1718)

 CYCLE    2
 SCF Error: norm([F,P])=      0.033001933656, max([F,P])=      0.033001933656
 orbitals (Q,E):
 ---------------
 S :1...2            ( 1.00    -0.2268)  ( 0.00     0.4005)

 CYCLE    3
  SDIIS (wt  0.000):  0.1528  0.8472
 A-DIIS (wt  1.000):  0.0000  1.0000
  DIIS coefficients:  0.0000  1.0000
 SCF Error: norm([F,P])=      0.005954454000, max([F,P])=      0.005954454000
 orbitals (Q,E):
 ---------------
 S :1...2            ( 1.00    -0.2417)  ( 0.00     0.3884)

 CYCLE    4
  SDIIS (wt  1.000):  0.1463  0.8537
 A-DIIS (wt  0.000):  0.0000  1.0000
  DIIS coefficients:  0.1463  0.8537
 SCF Error: norm([F,P])=      0.001020399433, max([F,P])=      0.001020399433
 orbitals (Q,E):
 ---------------
 S :1...2            ( 1.00    -0.2394)  ( 0.00     0.3902)

 CYCLE    5
  SDIIS (wt  1.000):  0.0014  0.9986
  DIIS coefficients:  0.0014  0.9986
 SCF Error: norm([F,P])=      0.000001436995, max([F,P])=      0.000001436995
 orbitals (Q,E):
 ---------------
 S :1...2            ( 1.00    -0.2394)  ( 0.00     0.3902)

 CYCLE    6
  SDIIS (wt  1.000): -0.0002  1.0002
  DIIS coefficients: -0.0002  1.0002
 SCF Error: norm([F,P])=      0.000000000334, max([F,P])=      0.000000000334
 orbitals (Q,E):
 ---------------
 S :1...2            ( 1.00    -0.2394)  ( 0.00     0.3902)

 SCF CONVERGED

 CYCLE    7
1
 ***************************************************************************************************



                                                *******************
                                                *  R E S U L T S  *
                                                *******************
  
 *** Using FIT density in Focky
  SDIIS (wt  1.000):  0.0000  1.0000
  DIIS coefficients:  0.0000  1.0000
 SCF Error: norm([F,P])=      0.000000000000, max([F,P])=      0.000000000000

 Scaled ZORA Orbital Energies, per Irrep and Spin:
 =================================================
                        Occup              E (au)              E (eV)       Diff (eV) with prev. cycle
                        -----      --------------------        ------       --------------------------
 S
               1        1.000     -0.23939248892723E+00        -6.514               9.37E-14
               2        0.000      0.39021645958604E+00        10.618


 Partially Occupied:
               1 S                -0.23939248892723E+00
  
 LUMO :        2 S                 0.39021645958604E+00
  


 All Electron Calculation, thus no Orbital Energies of the Core Orbitals are calculated



 =======================================
 M U L L I K E N   P O P U L A T I O N S
 =======================================
  
 The survey below gives for each atom:
 a) the total charge (Z minus electrons)
 b) the net spin polarization (nr of electrons spin-A minus spin-B)
 c) for each spin the atomic electron valence density (integrated) per L-value.

 Atom              Charge    Spin density          S         P         D         F
 ----              ------    ------------       ------    ------    ------    ------
 1 H              -0.0000                       1.0000    0.0000    0.0000    0.0000

 Populations of individual BAS functions
 ----------------------------------------
 1 H            0.6465  0.3535

 Gross Charges per Atom (Z minus electrons)
 ==========================================
            -0.0000
 Net Total: -0.00000000



 =======================================================================
 Electrostatic potential at the Nuclei due to electrons and other nuclei
 =======================================================================
  
         Atom                  Potential
         ----                  ---------
     1)   H                   0.94379605
 
 
 ========================
 No memory problems found
 ========================
 
 Maximum number of active allocate calls:         264
 
 *******************************************************************************

                             A D F   E X I T
 NORMAL TERMINATION



 =================
 Timing Statistics
 =================
  
 Total Used :                     CPU=        0.46      System=        0.07     Elapsed=        0.74

 Calls  Section                     ( Mean, Percentage )
 ---------------------------------------------------------------------------------------------------
     3  ><      ................      0.00    0.78             0.00    3.96             0.00    1.28
     1  INIT    ................      0.09   19.35             0.01   10.51             0.11   14.85
     1  GEOMET  ................      0.03    6.60             0.01   15.78             0.07    9.20
     1  INPUTA  ................      0.00    0.88             0.00    2.20             0.01    1.23
     1  MAINSY  ................      0.02    3.76             0.01   10.12             0.04    5.85
     1  SYMFIT  ................      0.00    0.39             0.00    1.84             0.00    0.49
     1  CORORT  ................      0.00    0.66             0.00    0.00             0.01    0.70
     1  SYMORB  ................      0.00    0.42             0.00    0.12             0.00    0.41
     1  CLSMAT  ................      0.01    1.45             0.00    1.29             0.01    1.74
     1  ORTHON  ................      0.01    1.69             0.00    0.61             0.01    1.43
     1  GENPT   ................      0.02    4.01             0.00    5.07             0.03    4.41
     1  PTBAS   ................      0.01    1.27             0.00    2.61             0.01    1.91
     7  FOCKY   ................      0.03   42.43             0.00   26.58             0.04   36.19
     7  FOCKTR  ................      0.00    1.62             0.00    1.49             0.00    2.22
     7  SDIIS   ................      0.00    5.63             0.00    7.78             0.01    8.15
     1  COREPS  ................      0.02    3.33             0.01    7.28             0.03    3.72
     1  POPAN   ................      0.01    1.33             0.00    1.24             0.01    1.58
     1  DEBYE   ................      0.00    0.72             0.00    1.07             0.01    0.90
     1  EXIT PROCEDURE .........      0.02    3.68             0.00    0.45             0.03    3.74


 Currently Open Files (EXIT00)
 ====================

 Unit    Access Format  Status   Type       Ident (file)
 -------------------------------------------------------
   3      SEQ    FORM   TRANSP  NORMAL      LOGFILE
                                          ( logfile )

 ***************************************************************************************************
 (LOGFILE)
 <Feb04-2021> <20:25:22>  DIRAC 2019  RunTime: Feb04-2021 20:25:22  Nodes: 1  Procs: 1
 <Feb04-2021> <20:25:22>  NORMAL TERMINATION
 <Feb04-2021> <20:25:22>  END
 <Feb04-2021> <20:25:22>  ADF 2019  RunTime: Feb04-2021 20:25:22  Nodes: 1  Procs: 1
 <Feb04-2021> <20:25:22>  Hydrogen (DZ)
 <Feb04-2021> <20:25:22>  RunType   : CREATE
 <Feb04-2021> <20:25:22>  Net Charge: 0 (Nuclei minus Electrons)
 <Feb04-2021> <20:25:22>  Symmetry  : ATOM
  Coordinates
    Atom         X           Y           Z   (Angstrom)
    1.H         0.000000    0.000000    0.000000
 <Feb04-2021> <20:25:22>  >>>> CORORT
 <Feb04-2021> <20:25:22>  >>>> CLSMAT
 <Feb04-2021> <20:25:22>  >>>> ORTHON
 <Feb04-2021> <20:25:22>  >>>> GENPT
 <Feb04-2021> <20:25:22>  Block Length=  64
 <Feb04-2021> <20:25:22>  >>>> PTBAS
 <Feb04-2021> <20:25:22>  >>>> CYCLE
 <Feb04-2021> <20:25:22>              |Error|         MaxErr       Wt(A-DIIS)
 <Feb04-2021> <20:25:22>      1      0.00000000      0.00000000
 <Feb04-2021> <20:25:22>      2      0.03300193      0.03300193
 <Feb04-2021> <20:25:22>      3      0.00595445      0.00595445    100.0
 <Feb04-2021> <20:25:22>      4      0.00102040      0.00102040      0.0
 <Feb04-2021> <20:25:22>      5      0.00000144      0.00000144      0.0
 <Feb04-2021> <20:25:23>      6      0.00000000      0.00000000      0.0
 <Feb04-2021> <20:25:23>  SCF converged
 <Feb04-2021> <20:25:23>      7      0.00000000      0.00000000      0.0
 <Feb04-2021> <20:25:23>  >>>> POPAN
 <Feb04-2021> <20:25:23>  >>>> DEBYE
 <Feb04-2021> <20:25:23>  NORMAL TERMINATION
 <Feb04-2021> <20:25:23>  END

 *******************************************************************************
 *                                                                             *
 *  -------------------------------------                                      *
 *   Amsterdam Density Functional  (ADF)         2019                          *
 *  -------------------------------------                                      *
 *                                               r74351 2019-04-25             *
 *                                                                             *
 *                                                                             *
 *                            =====================                            *
 *                            |                   |                            *
 *                            |     D I R A C     |                            *
 *                            |                   |                            *
 *                            =====================                            *
 *                                                                             *
 *                                                                             *
 *   Online information and documentation:  https://www.scm.com/support/       *
 *   E-mail:  support@scm.com   info@scm.com                                   *
 *                                                                             *
 *   Scientific publications using ADF results must be properly referenced     *
 *   See the User Manuals (or the web site) for recommended citations          *
 *   The terms and conditions of the End User License Agreement apply to       *
 *   the use of ADF, https://www.scm.com/license-terms/                        *
 *                                                                             *
 **********************  x86_64_linux_intel / intelmpi  ************************
 
 Licensed to: Dr. Emilie Guidez / UC Denver / Denver / CO / USA
 SCM User ID: u20218
  
 DIRAC 2019  RunTime: Feb04-2021 20:25:23  Nodes: 1  Procs: 1

 Temporary files are created in /home/chemistry/limjae/scr/kid_0.1409638544

1
 NITROGEN ATOM 1s CORE RELATIVISTIC, Point Nuc, A and c from 
 N J RN H ZN XION ANUC CLIGHT
 5000    4100.00000000197.36710137  7.00000000  0.00000000   14.003074  0.1370360E+03
  PH   PHI     EPS        DEL        DELRVR
  0.30  0.30     2500.00  0.00001000  0.00001000
 IDIRC  NC1  NDEBU NPRIN  IPUN IRCOR IWCOR
   1   300     0     0     0     0     1
   XALPHA      XLATTER      RNUC
  0.70000000  0.00000000  0.00000000 Point Charge
   XN   XL   XJ      XE          XZ      XDELL
  1.0  0.0  0.5      -5.000       2.000     0.00000
  2.0  0.0  0.5      -1.000       2.000     0.00000
  2.0  1.0  0.5      -1.000       2.000     0.00000
  2.0  1.0  1.5      -1.000       1.000     0.00000
 ICORP=  0  NPCL=  0  DEMP=0.00  PEPS=0.000000
 R(1)=  0.1000000E-08 D=  0.1005080E+01 RNUC=  0.0000000E+00
 converged at cycle   25  DENSITY AVERAGING    0.3000
  MAXIMUM ERROR IN R.V(R) IS   0.97905511E-05
 Q,EY,EV,EZ,ESUM,ETOT,RHO  0.700000E+01 -0.796419E+01 -0.840156E+02 -0.127663E+03 -0.300692E+02 -0.538837E+02  0.270066E-14


 DIRAC CALCULATION
1                    NITROGEN ATOM 1s CORE RELATIVISTIC, Point Nuc, A and c from libtc


 EXCHANGE COEFFICIENT=  0.7000000           TAIL CORRECTION=  0.           NUCLEAR RADIUS=  0.000E+00
0                       ORBITAL    N    L    J     ELECTRONS     EIGENVALUE                DELTA OF EIGENV.

                          1S1/2  1.0  0.0  0.5     2.000       -0.1403720E+02                 0.4993583E-04
                          2S1/2  2.0  0.0  0.5     2.000       -0.6456810E+00                 0.6544571E-05
                          2P1/2  2.0  1.0  0.5     2.000       -0.2347008E+00                 0.5687228E-05
                          2P3/2  2.0  1.0  1.5     1.000       -0.2339893E+00                 0.5679256E-05


                                        NUCLEAR CHARGE=    7.000000
                            INTEGRAL OF CHARGE DENSITY=    7.000000
                           SUM OF THE ORBITAL ENERGIES=    -30.0692
                                          TOTAL ENERGY=    -53.8837
                                        KINETIC ENERGY=     53.9465
                             NUCLEAR ATTRACTION ENERGY=   -127.6627
                             ELECTRON REPULSION ENERGY=     25.8056
                                       EXCHANGE ENERGY=     -5.9731

 *******************************************************************************

                             D I R A C   E X I T
 NORMAL TERMINATION



 =================
 Timing Statistics
 =================
  
 Total Used :                     CPU=        0.09      System=        0.02     Elapsed=        0.18

 Calls  Section                     ( Mean, Percentage )
 ---------------------------------------------------------------------------------------------------
     2  ><      ................      0.00    0.01             0.00    0.03             0.00    0.01
     1  EXIT PROCEDURE .........      0.09   99.99             0.02   99.97             0.18   99.99


 Currently Open Files (EXIT00)
 ====================

 Unit    Access Format  Status   Type       Ident (file)
 -------------------------------------------------------
   3      SEQ    FORM   TRANSP  NORMAL      LOGFILE
                                          ( logfile )
 
Create N   file=DZ-N.1s
XC
 GGA PBE
End
relativistic ZORA
Corepotentials t12.rel
End

 *******************************************************************************
 *                                                                             *
 *  -------------------------------------                                      *
 *   Amsterdam Density Functional  (ADF)         2019                          *
 *  -------------------------------------                                      *
 *                                               r74351 2019-04-25             *
 *                                                                             *
 *                                                                             *
 *                              =================                              *
 *                              |               |                              *
 *                              |     A D F     |                              *
 *                              |               |                              *
 *                              =================                              *
 *                                                                             *
 *                                                                             *
 *   Online information and documentation:  https://www.scm.com/support/       *
 *   E-mail:  support@scm.com   info@scm.com                                   *
 *                                                                             *
 *   Scientific publications using ADF results must be properly referenced     *
 *   See the User Manuals (or the web site) for recommended citations          *
 *   The terms and conditions of the End User License Agreement apply to       *
 *   the use of ADF, https://www.scm.com/license-terms/                        *
 *                                                                             *
 **********************  x86_64_linux_intel / intelmpi  ************************
 
 Licensed to: Dr. Emilie Guidez / UC Denver / Denver / CO / USA
 SCM User ID: u20218
  
 ADF 2019  RunTime: Feb04-2021 20:25:23  Nodes: 1  Procs: 1

 Temporary files are created in /home/chemistry/limjae/scr/kid_0.2028744605

 Nitrogen (DZ, 1s frozen)



 ===========================
 A T T A C H E D   F I L E S
 ===========================
  
 CREATE - Data File:    DZ-N.1s
                        Nitrogen (DZ, 1s frozen)
 Core Potentials:
         file : t12.rel



 ===============================
 M O D E L   P A R A M E T E R S
 ===============================
  
 DENSITY FUNCTIONAL POTENTIAL (scf)
    LDA:                               PW92                                    == Not Default ==
    Gradient Corrections:              PBEc PBEx                               == Not Default ==

 SPIN  (restricted / unrestr.)
    Molecule:                          Restricted                               

 OTHER ASPECTS
    Relativistic Corrections:          scalar (ZORA,MAPA)                      == Not Default ==

    Nuclear Charge Density Model:      Point Charge Nuclei                      
    Core Treatment:                    Frozen Orbital(s)                        

    Hyperfine or Zeeman Interaction:   ---                                      



 =====================================
 S Y M M E T R Y ,   E L E C T R O N S
 =====================================
  
 Symmetry: ATOM

 Irreducible Representations, including subspecies
 -------------------------------------------------
 S
 P:x  P:y  P:z
 D:z2  D:x2-y2  D:xy  D:xz  D:yz
 F:z3  F:z  F:xyz  F:z2x  F:z2y  F:x  F:y


 Configuration of Valence Electrons
 ==================================

          Occupation Numbers
          -------------------------------------------------
 S        2
 P        3
 D        0
 F        0
          -------------------------------------------------

 Total:   5

 Net Charge: 0 (Nuclei minus Electrons)

 Preset values for MO occupations will be applied through SCF cycle no. 1000000
 Thereafter, the program will assign electrons to MOs that are spatially
 similar to the occupied MOs in a "reference" cycle ("KeepOrbitals").
 The reference cycle is always the PREVIOUS cycle: it will evolve with
 the SCF procedure.



 ================================
 (Slater-type)  F U N C T I O N S  ***  (Basis and Fit)  ***
 ================================
  

 Atom Type    1  (N)
 ==============

 Valence Basis Sets:   5
 -----------------------
   1 S    6.380000
   2 S    1.460000
   2 S    2.380000
   2 P    1.120000
   2 P    2.580000

 Frozen Core Shells
 ------------------
    S:  1


 BAS: List of all Elementary Cartesian Basis Functions
 =====================================================

 The numbering in the list below (to the right of the function characteristics) is referred
 to in print-outs of MO eigenvectors and Mulliken populations in the BAS representation
 (as contrasted to the SFO representation).

 Notes:
 1. The functions are characterized by a polynomial prefactor (powers of x,y,z and r) and
    an exponential decay factor alpha.
 2. Since the basis sets are specific for an atom TYPE, the individual functions occur on
    all atoms of that type.
 3. The word 'Core' in the left margin signals that it is a Core Function (CF) : not a
    degree of freedom in the valence set, but only used to ensure orthogonalization of
    the other valence basis functions on the frozen Core Orbitals.


 (power of) X  Y  Z  R     Alpha  on Atom
            ==========     =====     ==========

 N                                    1
                                  ---------------------------------------------------------------------------
    Core    0  0  0  0     6.380      1
            0  0  0  1     1.460      2
            0  0  0  1     2.380      3
            1  0  0  0     1.120      4
            0  1  0  0     1.120      5
            0  0  1  0     1.120      6
            1  0  0  0     2.580      7
            0  1  0  0     2.580      8
            0  0  1  0     2.580      9

 Total number of charge fitting functions (nprimf)        82
 Total number of Cartesian basis functions (naos)          9
 Total number of Cartesian core functions  (ncos)          1



 BAS: List of all Elementary Cartesian Basis Functions
 =====================================================

 The numbering in the list below (to the right of the function characteristics) is referred
 to in print-outs of MO eigenvectors and Mulliken populations in the BAS representation
 (as contrasted to the SFO representation).

 Notes:
 1. The functions are characterized by a polynomial prefactor (powers of x,y,z and r) and
    an exponential decay factor alpha.
 2. Since the basis sets are specific for an atom TYPE, the individual functions occur on
    all atoms of that type.
 3. The word 'Core' in the left margin signals that it is a Core Function (CF) : not a
    degree of freedom in the valence set, but only used to ensure orthogonalization of
    the other valence basis functions on the frozen Core Orbitals.


 (power of) X  Y  Z  R     Alpha  on Atom
            ==========     =====     ==========

 N                                    1
                                  ---------------------------------------------------------------------------
    Core    0  0  0  0     6.380      1
            0  0  0  1     1.460      2
            0  0  0  1     2.380      3
            1  0  0  0     1.120      4
            0  1  0  0     1.120      5
            0  0  1  0     1.120      6
            1  0  0  0     2.580      7
            0  1  0  0     2.580      8
            0  0  1  0     2.580      9
1
 ***************************************************************************************************



                                              ***********************
                                              *  T E C H N I C A L  *
                                              ***********************
  



 =============================================================
 P A R A L L E L I Z A T I O N  and  V E C T O R I Z A T I O N
 =============================================================
  
 Nr of parallel processes:                                1
 Maximum vector length in NumInt loops:                 128



 =====================
 S C F   U P D A T E S
 =====================
  
 Max. nr. of cycles:                               300
 Convergence criterion:                              0.0000000100
   secondary criterion:                              0.0000000100

 Mix parameter (when DIIS does not apply):           0.2000000000
 Special mix parameter for the first cycle:          1.0000000000
 Mixed ADIIS+SDIIS will be used                  
    Max number of expansion vectors:                10
    Pure ADIIS when Max([F,P]) is above              0.1000000000
    Pure SDIIS when Max([F,P]) is below              0.0010000000
 Automatic ElectronSmearing (in case of problematic SCF convergence) disabled



 =================
 P R E C I S I O N  ***  (General: NumInt, NeglectFunctionTails, ...)  ***
 =================
  

 NumInt:           Target precision:                12.0000000000
 -------           Initial precision:               10.0000000000
                   Min. precision (optimization):   10.0000000000

 Neglect Functions:          Basis functions:        0.1000000000E-13
 ------------------          Fit functions:          0.1000000000E-13



 ===========================
 L I N E A R   S C A L I N G
 ===========================
  

 Cut-off radii density fit:                        0.1000000000E-97
 Overlap cut-off criterion AO matrix elements:     0.1000000000E-97
 Cut-offs for Coulomb potential and fitted density:0.1000000000E-97
 Cut-off criterion for Coulomb multipole terms:    0.1000000000E-97
 Progressive Convergence parameter:                 0.000000000    
1
 ***************************************************************************************************



                                            ***************************
                                            *  C O M P U T A T I O N  *
                                            ***************************
  

 Number of elements of the density matrix on this node (used, total):        45        45



 ===========================================
 Numerical Integration : Fuzzy Cells (Becke)
 ===========================================
  
 Becke grid quality: VERYGOOD       
  
 Lebedev angular grid order:             min:  13 max:  41
 Nr. of radial points:                   min:  68 max:  68

 Total nr. of points:         68
 Nr. of blocks:                1
 Block length:                68
 Nr. of dummy points:          0


 Test of Precision of the Numerical Integration Grid
 ===================================================

 Integral of the Total Core Density:                   2.00000004779027
 Relative Error:                                       2.390E-08



 ========================
 Density Fitting (zlmFit)
 ========================
  
 ZlmFit Fit Quality: VERYGOOD       
  
 Max L-expansion:                        min:   0 max:   0
 Nr. of radial interpolation points:     min: 150 max: 150



 =====
 S C F  ***  ScaSCF  ***
 =====
  

 CYCLE    1
 SCF Error: norm([F,P])=      0.000000000000, max([F,P])=      0.000000000000
 orbitals (Q,E):
 ---------------
 S :1...2            ( 2.00    -3.8308)  ( 0.00    -1.5342)
 P :1...2            ( 3.00    -3.5256)  ( 0.00    -1.4645)

 CYCLE    2
 SCF Error: norm([F,P])=      1.549673975551, max([F,P])=      1.258101921759
 orbitals (Q,E):
 ---------------
 S :1...2            ( 2.00    -0.1903)  ( 0.00     1.2168)
 P :1...2            ( 3.00     0.1546)  ( 0.00     1.2047)

 CYCLE    3
  SDIIS (wt  0.000):  0.4674  0.5326
 A-DIIS (wt  1.000):  0.3240  0.6760
  DIIS coefficients:  0.3240  0.6760
 SCF Error: norm([F,P])=      1.360249054281, max([F,P])=      1.048050156299
 orbitals (Q,E):
 ---------------
 S :1...2            ( 2.00    -0.8381)  ( 0.00     0.5861)
 P :1...2            ( 3.00    -0.4109)  ( 0.00     0.4817)

 CYCLE    4
  SDIIS (wt  0.000):  0.1928  0.8072
 A-DIIS (wt  1.000):  0.0000  1.0000
  DIIS coefficients:  0.0000  1.0000
 SCF Error: norm([F,P])=      0.325925918927, max([F,P])=      0.228226698732
 orbitals (Q,E):
 ---------------
 S :1...2            ( 2.00    -0.5797)  ( 0.00     0.7788)
 P :1...2            ( 3.00    -0.1643)  ( 0.00     0.6846)

 CYCLE    5
  SDIIS (wt  0.000):  0.4892  0.5108
 A-DIIS (wt  1.000):  0.4642  0.5358
  DIIS coefficients:  0.4642  0.5358
 SCF Error: norm([F,P])=      0.312119029167, max([F,P])=      0.221835145933
 orbitals (Q,E):
 ---------------
 S :1...2            ( 2.00    -0.6950)  ( 0.00     0.6844)
 P :1...2            ( 3.00    -0.2715)  ( 0.00     0.5814)

 CYCLE    6
  SDIIS (wt  0.928):  0.0359  0.9641
 A-DIIS (wt  0.072):  0.0000  1.0000
  DIIS coefficients:  0.0333  0.9667
 SCF Error: norm([F,P])=      0.011627935283, max([F,P])=      0.008114454643
 orbitals (Q,E):
 ---------------
 S :1...2            ( 2.00    -0.6895)  ( 0.00     0.6886)
 P :1...2            ( 3.00    -0.2663)  ( 0.00     0.5858)

 CYCLE    7
  SDIIS (wt  1.000):  0.0715  0.9285
  DIIS coefficients:  0.0715  0.9285
 SCF Error: norm([F,P])=      0.000895557034, max([F,P])=      0.000636506786
 orbitals (Q,E):
 ---------------
 S :1...2            ( 2.00    -0.6898)  ( 0.00     0.6884)
 P :1...2            ( 3.00    -0.2666)  ( 0.00     0.5855)

 CYCLE    8
  SDIIS (wt  1.000): -0.0084  1.0084
  DIIS coefficients: -0.0084  1.0084
 SCF Error: norm([F,P])=      0.000007431471, max([F,P])=      0.000005244833
 orbitals (Q,E):
 ---------------
 S :1...2            ( 2.00    -0.6898)  ( 0.00     0.6884)
 P :1...2            ( 3.00    -0.2666)  ( 0.00     0.5855)

 CYCLE    9
  SDIIS (wt  1.000):  0.0035  0.9965
  DIIS coefficients:  0.0035  0.9965
 SCF Error: norm([F,P])=      0.000000026230, max([F,P])=      0.000000018481
 orbitals (Q,E):
 ---------------
 S :1...2            ( 2.00    -0.6898)  ( 0.00     0.6884)
 P :1...2            ( 3.00    -0.2666)  ( 0.00     0.5855)

 CYCLE   10
  SDIIS (wt  1.000):  0.0008  0.9992
  DIIS coefficients:  0.0008  0.9992
 SCF Error: norm([F,P])=      0.000000000021, max([F,P])=      0.000000000015
 orbitals (Q,E):
 ---------------
 S :1...2            ( 2.00    -0.6898)  ( 0.00     0.6884)
 P :1...2            ( 3.00    -0.2666)  ( 0.00     0.5855)

 SCF CONVERGED

 CYCLE   11
1
 ***************************************************************************************************



                                                *******************
                                                *  R E S U L T S  *
                                                *******************
  
 *** Using FIT density in Focky
  SDIIS (wt  1.000):  0.0005  0.9995
  DIIS coefficients:  0.0005  0.9995
 SCF Error: norm([F,P])=      0.000000000000, max([F,P])=      0.000000000000

 Scaled ZORA Orbital Energies, per Irrep and Spin:
 =================================================
                        Occup              E (au)              E (eV)       Diff (eV) with prev. cycle
                        -----      --------------------        ------       --------------------------
 S
               1        2.000     -0.68979333234436E+00       -18.770               1.57E-13
               2        0.000      0.68835668824347E+00        18.731
 P
               1        3.000     -0.26655778219350E+00        -7.253               1.57E-13
               2        0.000      0.58549619457877E+00        15.932


 Partially Occupied:
               1 P                -0.26655778219350E+00
  
 HOMO :        1 S                -0.68979333234436E+00
 LUMO :        2 P                 0.58549619457877E+00
  


 Orbital Energies, all Irreps
 ========================================

 Irrep        no.  (spin)   Occup              E (au)                E (eV)
 ---------------------------------------------------------------------------
 S             1             2.00       -0.68979333234436E+00       -18.7702
 P             1             3.00       -0.26655778219350E+00        -7.2534
 P             2             0.00        0.58549619457877E+00        15.9322
 S             2             0.00        0.68835668824347E+00        18.7311


 Scaled ZORA Orbital Energies of the Core Orbitals:
 ==================================================

 (Note that the atoms are grouped by atomtype, see the labels, and may hence NOT be in input order)

 AtomType  Orbital  Atom                   E (au)                        E (eV)
 --------  -------  ----           --------------------        ----------------
 N           1S        1          -0.14166659762581E+02                -385.494



 =======================================
 M U L L I K E N   P O P U L A T I O N S
 =======================================
  
 The survey below gives for each atom:
 a) the total charge (Z minus electrons)
 b) the net spin polarization (nr of electrons spin-A minus spin-B)
 c) for each spin the atomic electron valence density (integrated) per L-value.

 Atom              Charge    Spin density          S         P         D         F
 ----              ------    ------------       ------    ------    ------    ------
 1 N              -0.0000                       2.0000    3.0000    0.0000    0.0000

 Populations of individual BAS functions
 ----------------------------------------
 1 N            0.0005  0.8702  1.1293  0.4947  0.4947  0.4947  0.5053  0.5053  0.5053

 Gross Charges per Atom (Z minus electrons)
 ==========================================
            -0.0000
 Net Total: -0.00000000



 =======================================================================
 Electrostatic potential at the Nuclei due to electrons and other nuclei
 =======================================================================
  
         Atom                  Potential
         ----                  ---------
     1)   N                  18.25311827
 
 
 ========================
 No memory problems found
 ========================
 
 Maximum number of active allocate calls:         319
 
 *******************************************************************************

                             A D F   E X I T
 NORMAL TERMINATION



 =================
 Timing Statistics
 =================
  
 Total Used :                     CPU=        0.63      System=        0.07     Elapsed=        0.94

 Calls  Section                     ( Mean, Percentage )
 ---------------------------------------------------------------------------------------------------
     3  ><      ................      0.00    0.72             0.00    3.83             0.00    1.12
     1  INIT    ................      0.10   15.23             0.00    3.47             0.11   11.81
     1  GEOMET  ................      0.03    4.96             0.01   10.78             0.07    7.06
     1  INPUTA  ................      0.00    0.70             0.00    1.53             0.01    0.97
     1  MAINSY  ................      0.02    3.31             0.00    6.42             0.04    4.69
     1  SYMFIT  ................      0.00    0.07             0.00    2.47             0.00    0.30
     1  CORORT  ................      0.00    0.22             0.00    1.05             0.00    0.49
     1  SYMORB  ................      0.00    0.27             0.00    0.00             0.00    0.29
     1  CLSMAT  ................      0.01    1.20             0.00    2.48             0.02    1.67
     1  ORTHON  ................      0.01    1.07             0.00    0.00             0.01    0.97
     1  GENPT   ................      0.02    3.41             0.00    3.72             0.04    3.82
     1  PTBAS   ................      0.01    1.43             0.00    3.87             0.02    2.00
    11  FOCKY   ................      0.03   51.27             0.00   28.08             0.04   42.78
    11  FOCKTR  ................      0.00    1.58             0.00    6.57             0.00    2.91
    11  SDIIS   ................      0.00    6.95             0.00   19.28             0.01   10.88
     1  COREPS  ................      0.02    3.65             0.00    2.98             0.03    3.36
     1  POPAN   ................      0.01    1.06             0.00    0.01             0.01    1.31
     1  DEBYE   ................      0.00    0.41             0.00    0.04             0.01    0.55
     1  EXIT PROCEDURE .........      0.02    2.48             0.00    3.41             0.03    3.01


 Currently Open Files (EXIT00)
 ====================

 Unit    Access Format  Status   Type       Ident (file)
 -------------------------------------------------------
   3      SEQ    FORM   TRANSP  NORMAL      LOGFILE
                                          ( logfile )

 ***************************************************************************************************
 (LOGFILE)
 <Feb04-2021> <20:25:22>  DIRAC 2019  RunTime: Feb04-2021 20:25:22  Nodes: 1  Procs: 1
 <Feb04-2021> <20:25:22>  NORMAL TERMINATION
 <Feb04-2021> <20:25:22>  END
 <Feb04-2021> <20:25:22>  ADF 2019  RunTime: Feb04-2021 20:25:22  Nodes: 1  Procs: 1
 <Feb04-2021> <20:25:22>  Hydrogen (DZ)
 <Feb04-2021> <20:25:22>  RunType   : CREATE
 <Feb04-2021> <20:25:22>  Net Charge: 0 (Nuclei minus Electrons)
 <Feb04-2021> <20:25:22>  Symmetry  : ATOM
  Coordinates
    Atom         X           Y           Z   (Angstrom)
    1.H         0.000000    0.000000    0.000000
 <Feb04-2021> <20:25:22>  >>>> CORORT
 <Feb04-2021> <20:25:22>  >>>> CLSMAT
 <Feb04-2021> <20:25:22>  >>>> ORTHON
 <Feb04-2021> <20:25:22>  >>>> GENPT
 <Feb04-2021> <20:25:22>  Block Length=  64
 <Feb04-2021> <20:25:22>  >>>> PTBAS
 <Feb04-2021> <20:25:22>  >>>> CYCLE
 <Feb04-2021> <20:25:22>              |Error|         MaxErr       Wt(A-DIIS)
 <Feb04-2021> <20:25:22>      1      0.00000000      0.00000000
 <Feb04-2021> <20:25:22>      2      0.03300193      0.03300193
 <Feb04-2021> <20:25:22>      3      0.00595445      0.00595445    100.0
 <Feb04-2021> <20:25:22>      4      0.00102040      0.00102040      0.0
 <Feb04-2021> <20:25:22>      5      0.00000144      0.00000144      0.0
 <Feb04-2021> <20:25:23>      6      0.00000000      0.00000000      0.0
 <Feb04-2021> <20:25:23>  SCF converged
 <Feb04-2021> <20:25:23>      7      0.00000000      0.00000000      0.0
 <Feb04-2021> <20:25:23>  >>>> POPAN
 <Feb04-2021> <20:25:23>  >>>> DEBYE
 <Feb04-2021> <20:25:23>  NORMAL TERMINATION
 <Feb04-2021> <20:25:23>  END
 <Feb04-2021> <20:25:23>  DIRAC 2019  RunTime: Feb04-2021 20:25:23  Nodes: 1  Procs: 1
 <Feb04-2021> <20:25:23>  NORMAL TERMINATION
 <Feb04-2021> <20:25:23>  END
 <Feb04-2021> <20:25:23>  ADF 2019  RunTime: Feb04-2021 20:25:23  Nodes: 1  Procs: 1
 <Feb04-2021> <20:25:23>  Nitrogen (DZ, 1s frozen)
 <Feb04-2021> <20:25:23>  RunType   : CREATE
 <Feb04-2021> <20:25:23>  Net Charge: 0 (Nuclei minus Electrons)
 <Feb04-2021> <20:25:23>  Symmetry  : ATOM
  Coordinates
    Atom         X           Y           Z   (Angstrom)
    1.N         0.000000    0.000000    0.000000
 <Feb04-2021> <20:25:23>  >>>> CORORT
 <Feb04-2021> <20:25:23>  >>>> CLSMAT
 <Feb04-2021> <20:25:23>  >>>> ORTHON
 <Feb04-2021> <20:25:23>  >>>> GENPT
 <Feb04-2021> <20:25:23>  Block Length=  68
 <Feb04-2021> <20:25:23>  >>>> PTBAS
 <Feb04-2021> <20:25:23>  >>>> CYCLE
 <Feb04-2021> <20:25:24>              |Error|         MaxErr       Wt(A-DIIS)
 <Feb04-2021> <20:25:24>      1      0.00000000      0.00000000
 <Feb04-2021> <20:25:24>      2      1.54967398      1.25810192
 <Feb04-2021> <20:25:24>      3      1.36024905      1.04805016    100.0
 <Feb04-2021> <20:25:24>      4      0.32592592      0.22822670    100.0
 <Feb04-2021> <20:25:24>      5      0.31211903      0.22183515    100.0
 <Feb04-2021> <20:25:24>      6      0.01162794      0.00811445      7.2
 <Feb04-2021> <20:25:24>      7      0.00089556      0.00063651      0.0
 <Feb04-2021> <20:25:24>      8      0.00000743      0.00000524      0.0
 <Feb04-2021> <20:25:24>      9      0.00000003      0.00000002      0.0
 <Feb04-2021> <20:25:24>     10      0.00000000      0.00000000      0.0
 <Feb04-2021> <20:25:24>  SCF converged
 <Feb04-2021> <20:25:24>     11      0.00000000      0.00000000      0.0
 <Feb04-2021> <20:25:24>  >>>> POPAN
 <Feb04-2021> <20:25:24>  >>>> DEBYE
 <Feb04-2021> <20:25:24>  NORMAL TERMINATION
 <Feb04-2021> <20:25:24>  END

 *******************************************************************************
 *                                                                             *
 *  -------------------------------------                                      *
 *   Amsterdam Density Functional  (ADF)         2019                          *
 *  -------------------------------------                                      *
 *                                               r74351 2019-04-25             *
 *                                                                             *
 *                                                                             *
 *                            =====================                            *
 *                            |                   |                            *
 *                            |     D I R A C     |                            *
 *                            |                   |                            *
 *                            =====================                            *
 *                                                                             *
 *                                                                             *
 *   Online information and documentation:  https://www.scm.com/support/       *
 *   E-mail:  support@scm.com   info@scm.com                                   *
 *                                                                             *
 *   Scientific publications using ADF results must be properly referenced     *
 *   See the User Manuals (or the web site) for recommended citations          *
 *   The terms and conditions of the End User License Agreement apply to       *
 *   the use of ADF, https://www.scm.com/license-terms/                        *
 *                                                                             *
 **********************  x86_64_linux_intel / intelmpi  ************************
 
 Licensed to: Dr. Emilie Guidez / UC Denver / Denver / CO / USA
 SCM User ID: u20218
  
 DIRAC 2019  RunTime: Feb04-2021 20:25:24  Nodes: 1  Procs: 1

 Temporary files are created in /home/chemistry/limjae/scr/kid_0.1599401365

1
 GOLD ATOM 4d CORE RELATIVISTIC, Point Nuc, A and c from libt
 N J RN H ZN XION ANUC CLIGHT
 5000   22100.00000000197.36710137 79.00000000  0.00000000  196.966551  0.1370360E+03
  PH   PHI     EPS        DEL        DELRVR
  0.30  0.30     2500.00  0.00001000  0.00001000
 IDIRC  NC1  NDEBU NPRIN  IPUN IRCOR IWCOR
   1   300     0     0     0     0    14
   XALPHA      XLATTER      RNUC
  0.70000000  0.00000000  0.00000000 Point Charge
   XN   XL   XJ      XE          XZ      XDELL
  1.0  0.0  0.5   -2600.000       2.000     0.00000
  2.0  0.0  0.5    -425.000       2.000     0.00000
  2.0  1.0  0.5    -425.000       2.000     0.00000
  2.0  1.0  1.5    -425.000       4.000     0.00000
  3.0  0.0  0.5    -100.000       2.000     0.00000
  3.0  1.0  0.5    -100.000       2.000     0.00000
  3.0  1.0  1.5    -100.000       4.000     0.00000
  3.0  2.0  1.5     -80.000       4.000     0.00000
  3.0  2.0  2.5     -80.000       6.000     0.00000
  4.0  0.0  0.5     -22.000       2.000     0.00000
  4.0  1.0  0.5     -20.000       2.000     0.00000
  4.0  1.0  1.5     -20.000       4.000     0.00000
  4.0  2.0  1.5     -11.000       4.000     0.00000
  4.0  2.0  2.5     -11.000       6.000     0.00000
  4.0  3.0  2.5      -1.000       6.000     0.00000
  4.0  3.0  3.5      -1.000       8.000     0.00000
  5.0  0.0  0.5      -3.000       2.000     0.00000
  5.0  1.0  0.5      -2.200       2.000     0.00000
  5.0  1.0  1.5      -2.200       4.000     0.00000
  5.0  2.0  1.5      -0.500       4.000     0.00000
  5.0  2.0  2.5      -0.500       6.000     0.00000
  6.0  0.0  0.5      -0.200       1.000     0.00000
 ICORP=  0  NPCL=  0  DEMP=0.00  PEPS=0.000000
 R(1)=  0.1000000E-08 D=  0.1005080E+01 RNUC=  0.0000000E+00
 converged at cycle   60  DENSITY AVERAGING    0.0786
  MAXIMUM ERROR IN R.V(R) IS   0.38523360E-05
 Q,EY,EV,EZ,ESUM,ETOT,RHO  0.790000E+02 -0.485545E+03 -0.336404E+05 -0.479937E+05 -0.117486E+05 -0.190466E+05  0.196298E-08


 DIRAC CALCULATION
1                    GOLD ATOM 4d CORE RELATIVISTIC, Point Nuc, A and c from libtc


 EXCHANGE COEFFICIENT=  0.7000000           TAIL CORRECTION=  0.           NUCLEAR RADIUS=  0.000E+00
0                       ORBITAL    N    L    J     ELECTRONS     EIGENVALUE                DELTA OF EIGENV.

                          1S1/2  1.0  0.0  0.5     2.000       -0.2963119E+04                 0.3731460E-04
                          2S1/2  2.0  0.0  0.5     2.000       -0.5226069E+03                 0.3102938E-04
                          2P1/2  2.0  1.0  0.5     2.000       -0.5013071E+03                 0.3249986E-04
                          2P3/2  2.0  1.0  1.5     4.000       -0.4338328E+03                 0.3150316E-04
                          3S1/2  3.0  0.0  0.5     2.000       -0.1233461E+03                 0.2017137E-04
                          3P1/2  3.0  1.0  0.5     2.000       -0.1137481E+03                 0.2099254E-04
                          3P3/2  3.0  1.0  1.5     4.000       -0.9885554E+02                 0.1984570E-04
                          3D3/2  3.0  2.0  1.5     4.000       -0.8287610E+02                 0.2174809E-04
                          3D5/2  3.0  2.0  2.5     6.000       -0.7967162E+02                 0.2135379E-04
                          4S1/2  4.0  0.0  0.5     2.000       -0.2673972E+02                 0.1054160E-04
                          4P1/2  4.0  1.0  0.5     2.000       -0.2264484E+02                 0.1056903E-04
                          4P3/2  4.0  1.0  1.5     4.000       -0.1906321E+02                 0.9669504E-05
                          4D3/2  4.0  2.0  1.5     4.000       -0.1235180E+02                 0.9615342E-05
                          4D5/2  4.0  2.0  2.5     6.000       -0.1168427E+02                 0.9341815E-05
                          4F5/2  4.0  3.0  2.5     6.000       -0.3062221E+01                 0.8653601E-05
                          4F7/2  4.0  3.0  3.5     8.000       -0.2921300E+01                 0.8510675E-05
                          5S1/2  5.0  0.0  0.5     2.000       -0.3963776E+01                 0.3355907E-05
                          5P1/2  5.0  1.0  0.5     2.000       -0.2629660E+01                 0.2984355E-05
                          5P3/2  5.0  1.0  1.5     4.000       -0.2015087E+01                 0.2530381E-05
                          5D3/2  5.0  2.0  1.5     4.000       -0.2662248E+00                 0.1434098E-05
                          5D5/2  5.0  2.0  2.5     6.000       -0.2094938E+00                 0.1305568E-05
                          6S1/2  6.0  0.0  0.5     1.000       -0.1940684E+00                 0.3484321E-06


                                        NUCLEAR CHARGE=   79.000000
                            INTEGRAL OF CHARGE DENSITY=   79.000000
                           SUM OF THE ORBITAL ENERGIES= -11748.5839
                                          TOTAL ENERGY= -19046.6065
                                        KINETIC ENERGY=  21891.8398
                             NUCLEAR ATTRACTION ENERGY= -47993.6963
                             ELECTRON REPULSION ENERGY=   7419.4090
                                       EXCHANGE ENERGY=   -364.1591

 *******************************************************************************

                             D I R A C   E X I T
 NORMAL TERMINATION



 =================
 Timing Statistics
 =================
  
 Total Used :                     CPU=        0.59      System=        0.03     Elapsed=        0.75

 Calls  Section                     ( Mean, Percentage )
 ---------------------------------------------------------------------------------------------------
     2  ><      ................      0.00    0.00             0.00    0.02             0.00    0.00
     1  EXIT PROCEDURE .........      0.59  100.00             0.03   99.98             0.75  100.00


 Currently Open Files (EXIT00)
 ====================

 Unit    Access Format  Status   Type       Ident (file)
 -------------------------------------------------------
   3      SEQ    FORM   TRANSP  NORMAL      LOGFILE
                                          ( logfile )
 
Create Au   file=DZ-Au.4d
XC
 GGA PBE
End
relativistic ZORA
Corepotentials t12.rel
End

 *******************************************************************************
 *                                                                             *
 *  -------------------------------------                                      *
 *   Amsterdam Density Functional  (ADF)         2019                          *
 *  -------------------------------------                                      *
 *                                               r74351 2019-04-25             *
 *                                                                             *
 *                                                                             *
 *                              =================                              *
 *                              |               |                              *
 *                              |     A D F     |                              *
 *                              |               |                              *
 *                              =================                              *
 *                                                                             *
 *                                                                             *
 *   Online information and documentation:  https://www.scm.com/support/       *
 *   E-mail:  support@scm.com   info@scm.com                                   *
 *                                                                             *
 *   Scientific publications using ADF results must be properly referenced     *
 *   See the User Manuals (or the web site) for recommended citations          *
 *   The terms and conditions of the End User License Agreement apply to       *
 *   the use of ADF, https://www.scm.com/license-terms/                        *
 *                                                                             *
 **********************  x86_64_linux_intel / intelmpi  ************************
 
 Licensed to: Dr. Emilie Guidez / UC Denver / Denver / CO / USA
 SCM User ID: u20218
  
 ADF 2019  RunTime: Feb04-2021 20:25:25  Nodes: 1  Procs: 1

 Temporary files are created in /home/chemistry/limjae/scr/kid_0.639389724

 Gold (DZ, 4d frozen)



 ===========================
 A T T A C H E D   F I L E S
 ===========================
  
 CREATE - Data File:    DZ-Au.4d
                        Gold (DZ, 4d frozen)
 Core Potentials:
         file : t12.rel



 ===============================
 M O D E L   P A R A M E T E R S
 ===============================
  
 DENSITY FUNCTIONAL POTENTIAL (scf)
    LDA:                               PW92                                    == Not Default ==
    Gradient Corrections:              PBEc PBEx                               == Not Default ==

 SPIN  (restricted / unrestr.)
    Molecule:                          Restricted                               

 OTHER ASPECTS
    Relativistic Corrections:          scalar (ZORA,MAPA)                      == Not Default ==

    Nuclear Charge Density Model:      Point Charge Nuclei                      
    Core Treatment:                    Frozen Orbital(s)                        

    Hyperfine or Zeeman Interaction:   ---                                      



 =====================================
 S Y M M E T R Y ,   E L E C T R O N S
 =====================================
  
 Symmetry: ATOM

 Irreducible Representations, including subspecies
 -------------------------------------------------
 S
 P:x  P:y  P:z
 D:z2  D:x2-y2  D:xy  D:xz  D:yz
 F:z3  F:z  F:xyz  F:z2x  F:z2y  F:x  F:y


 Configuration of Valence Electrons
 ==================================

          Occupation Numbers
          -------------------------------------------------
 S        2 1
 P        6
 D        10
 F        14
          -------------------------------------------------

 Total:   33

 Net Charge: 0 (Nuclei minus Electrons)

 Preset values for MO occupations will be applied through SCF cycle no. 1000000
 Thereafter, the program will assign electrons to MOs that are spatially
 similar to the occupied MOs in a "reference" cycle ("KeepOrbitals").
 The reference cycle is always the PREVIOUS cycle: it will evolve with
 the SCF procedure.



 ================================
 (Slater-type)  F U N C T I O N S  ***  (Basis and Fit)  ***
 ================================
  

 Atom Type    1  (Au)
 ==============

 Valence Basis Sets:  21
 -----------------------
   1 S   57.000000
   2 S   36.650000
   3 S   21.050000
   4 S   12.400000
   2 P   39.650000
   3 P   17.950000
   4 P   12.550000
   3 D   22.100000
   4 D   11.200000
   5 S    7.000000
   5 S    4.600000
   6 S    2.850000
   6 S    1.510000
   5 P    6.000000
   5 P    3.700000
   5 D    4.350000
   5 D    2.000000
   4 F   16.150000
   4 F    8.900000
   4 F    4.900000
   6 P    1.950000

 Frozen Core Shells
 ------------------
    S:  4
    P:  3
    D:  2


 BAS: List of all Elementary Cartesian Basis Functions
 =====================================================

 The numbering in the list below (to the right of the function characteristics) is referred
 to in print-outs of MO eigenvectors and Mulliken populations in the BAS representation
 (as contrasted to the SFO representation).

 Notes:
 1. The functions are characterized by a polynomial prefactor (powers of x,y,z and r) and
    an exponential decay factor alpha.
 2. Since the basis sets are specific for an atom TYPE, the individual functions occur on
    all atoms of that type.
 3. The word 'Core' in the left margin signals that it is a Core Function (CF) : not a
    degree of freedom in the valence set, but only used to ensure orthogonalization of
    the other valence basis functions on the frozen Core Orbitals.


 (power of) X  Y  Z  R     Alpha  on Atom
            ==========     =====     ==========

 Au                                   1
                                  ---------------------------------------------------------------------------
    Core    0  0  0  0    57.000      1
    Core    0  0  0  1    36.650      2
    Core    0  0  0  2    21.050      3
    Core    0  0  0  3    12.400      4
    Core    1  0  0  0    39.650      5
    Core    0  1  0  0    39.650      6
    Core    0  0  1  0    39.650      7
    Core    1  0  0  1    17.950      8
    Core    0  1  0  1    17.950      9
    Core    0  0  1  1    17.950     10
    Core    1  0  0  2    12.550     11
    Core    0  1  0  2    12.550     12
    Core    0  0  1  2    12.550     13
    Core    2  0  0  0    22.100     14
    Core    1  1  0  0    22.100     15
    Core    1  0  1  0    22.100     16
    Core    0  2  0  0    22.100     17
    Core    0  1  1  0    22.100     18
    Core    0  0  2  0    22.100     19
    Core    2  0  0  1    11.200     20
    Core    1  1  0  1    11.200     21
    Core    1  0  1  1    11.200     22
    Core    0  2  0  1    11.200     23
    Core    0  1  1  1    11.200     24
    Core    0  0  2  1    11.200     25
            0  0  0  4     7.000     26
            0  0  0  4     4.600     27
            0  0  0  5     2.850     28
            0  0  0  5     1.510     29
            1  0  0  3     6.000     30
            0  1  0  3     6.000     31
            0  0  1  3     6.000     32
            1  0  0  3     3.700     33
            0  1  0  3     3.700     34
            0  0  1  3     3.700     35
            2  0  0  2     4.350     36
            1  1  0  2     4.350     37
            1  0  1  2     4.350     38
            0  2  0  2     4.350     39
            0  1  1  2     4.350     40
            0  0  2  2     4.350     41
            2  0  0  2     2.000     42
            1  1  0  2     2.000     43
            1  0  1  2     2.000     44
            0  2  0  2     2.000     45
            0  1  1  2     2.000     46
            0  0  2  2     2.000     47
            3  0  0  0    16.150     48
            2  1  0  0    16.150     49
            2  0  1  0    16.150     50
            1  2  0  0    16.150     51
            1  1  1  0    16.150     52
            1  0  2  0    16.150     53
            0  3  0  0    16.150     54
            0  2  1  0    16.150     55
            0  1  2  0    16.150     56
            0  0  3  0    16.150     57
            3  0  0  0     8.900     58
            2  1  0  0     8.900     59
            2  0  1  0     8.900     60
            1  2  0  0     8.900     61
            1  1  1  0     8.900     62
            1  0  2  0     8.900     63
            0  3  0  0     8.900     64
            0  2  1  0     8.900     65
            0  1  2  0     8.900     66
            0  0  3  0     8.900     67
            3  0  0  0     4.900     68
            2  1  0  0     4.900     69
            2  0  1  0     4.900     70
            1  2  0  0     4.900     71
            1  1  1  0     4.900     72
            1  0  2  0     4.900     73
            0  3  0  0     4.900     74
            0  2  1  0     4.900     75
            0  1  2  0     4.900     76
            0  0  3  0     4.900     77
            1  0  0  4     1.950     78
            0  1  0  4     1.950     79
            0  0  1  4     1.950     80

 Total number of charge fitting functions (nprimf)       327
 Total number of Cartesian basis functions (naos)         80
 Total number of Cartesian core functions  (ncos)         25



 BAS: List of all Elementary Cartesian Basis Functions
 =====================================================

 The numbering in the list below (to the right of the function characteristics) is referred
 to in print-outs of MO eigenvectors and Mulliken populations in the BAS representation
 (as contrasted to the SFO representation).

 Notes:
 1. The functions are characterized by a polynomial prefactor (powers of x,y,z and r) and
    an exponential decay factor alpha.
 2. Since the basis sets are specific for an atom TYPE, the individual functions occur on
    all atoms of that type.
 3. The word 'Core' in the left margin signals that it is a Core Function (CF) : not a
    degree of freedom in the valence set, but only used to ensure orthogonalization of
    the other valence basis functions on the frozen Core Orbitals.


 (power of) X  Y  Z  R     Alpha  on Atom
            ==========     =====     ==========

 Au                                   1
                                  ---------------------------------------------------------------------------
    Core    0  0  0  0    57.000      1
    Core    0  0  0  1    36.650      2
    Core    0  0  0  2    21.050      3
    Core    0  0  0  3    12.400      4
    Core    1  0  0  0    39.650      5
    Core    0  1  0  0    39.650      6
    Core    0  0  1  0    39.650      7
    Core    1  0  0  1    17.950      8
    Core    0  1  0  1    17.950      9
    Core    0  0  1  1    17.950     10
    Core    1  0  0  2    12.550     11
    Core    0  1  0  2    12.550     12
    Core    0  0  1  2    12.550     13
    Core    2  0  0  0    22.100     14
    Core    1  1  0  0    22.100     15
    Core    1  0  1  0    22.100     16
    Core    0  2  0  0    22.100     17
    Core    0  1  1  0    22.100     18
    Core    0  0  2  0    22.100     19
    Core    2  0  0  1    11.200     20
    Core    1  1  0  1    11.200     21
    Core    1  0  1  1    11.200     22
    Core    0  2  0  1    11.200     23
    Core    0  1  1  1    11.200     24
    Core    0  0  2  1    11.200     25
            0  0  0  4     7.000     26
            0  0  0  4     4.600     27
            0  0  0  5     2.850     28
            0  0  0  5     1.510     29
            1  0  0  3     6.000     30
            0  1  0  3     6.000     31
            0  0  1  3     6.000     32
            1  0  0  3     3.700     33
            0  1  0  3     3.700     34
            0  0  1  3     3.700     35
            2  0  0  2     4.350     36
            1  1  0  2     4.350     37
            1  0  1  2     4.350     38
            0  2  0  2     4.350     39
            0  1  1  2     4.350     40
            0  0  2  2     4.350     41
            2  0  0  2     2.000     42
            1  1  0  2     2.000     43
            1  0  1  2     2.000     44
            0  2  0  2     2.000     45
            0  1  1  2     2.000     46
            0  0  2  2     2.000     47
            3  0  0  0    16.150     48
            2  1  0  0    16.150     49
            2  0  1  0    16.150     50
            1  2  0  0    16.150     51
            1  1  1  0    16.150     52
            1  0  2  0    16.150     53
            0  3  0  0    16.150     54
            0  2  1  0    16.150     55
            0  1  2  0    16.150     56
            0  0  3  0    16.150     57
            3  0  0  0     8.900     58
            2  1  0  0     8.900     59
            2  0  1  0     8.900     60
            1  2  0  0     8.900     61
            1  1  1  0     8.900     62
            1  0  2  0     8.900     63
            0  3  0  0     8.900     64
            0  2  1  0     8.900     65
            0  1  2  0     8.900     66
            0  0  3  0     8.900     67
            3  0  0  0     4.900     68
            2  1  0  0     4.900     69
            2  0  1  0     4.900     70
            1  2  0  0     4.900     71
            1  1  1  0     4.900     72
            1  0  2  0     4.900     73
            0  3  0  0     4.900     74
            0  2  1  0     4.900     75
            0  1  2  0     4.900     76
            0  0  3  0     4.900     77
            1  0  0  4     1.950     78
            0  1  0  4     1.950     79
            0  0  1  4     1.950     80
1
 ***************************************************************************************************



                                              ***********************
                                              *  T E C H N I C A L  *
                                              ***********************
  



 =============================================================
 P A R A L L E L I Z A T I O N  and  V E C T O R I Z A T I O N
 =============================================================
  
 Nr of parallel processes:                                1
 Maximum vector length in NumInt loops:                 128



 =====================
 S C F   U P D A T E S
 =====================
  
 Max. nr. of cycles:                               300
 Convergence criterion:                              0.0000000100
   secondary criterion:                              0.0000000100

 Mix parameter (when DIIS does not apply):           0.2000000000
 Special mix parameter for the first cycle:          1.0000000000
 Mixed ADIIS+SDIIS will be used                  
    Max number of expansion vectors:                10
    Pure ADIIS when Max([F,P]) is above              0.1000000000
    Pure SDIIS when Max([F,P]) is below              0.0010000000
 Automatic ElectronSmearing (in case of problematic SCF convergence) disabled



 =================
 P R E C I S I O N  ***  (General: NumInt, NeglectFunctionTails, ...)  ***
 =================
  

 NumInt:           Target precision:                12.0000000000
 -------           Initial precision:               10.0000000000
                   Min. precision (optimization):   10.0000000000

 Neglect Functions:          Basis functions:        0.1000000000E-13
 ------------------          Fit functions:          0.1000000000E-13



 ===========================
 L I N E A R   S C A L I N G
 ===========================
  

 Cut-off radii density fit:                        0.1000000000E-97
 Overlap cut-off criterion AO matrix elements:     0.1000000000E-97
 Cut-offs for Coulomb potential and fitted density:0.1000000000E-97
 Cut-off criterion for Coulomb multipole terms:    0.1000000000E-97
 Progressive Convergence parameter:                 0.000000000    
1
 ***************************************************************************************************



                                            ***************************
                                            *  C O M P U T A T I O N  *
                                            ***************************
  

 Number of elements of the density matrix on this node (used, total):      3240      3240



 ===========================================
 Numerical Integration : Fuzzy Cells (Becke)
 ===========================================
  
 Becke grid quality: VERYGOOD       
  
 Lebedev angular grid order:             min:  13 max:  41
 Nr. of radial points:                   min: 123 max: 123

 Total nr. of points:        123
 Nr. of blocks:                1
 Block length:               123
 Nr. of dummy points:          0


 Test of Precision of the Numerical Integration Grid
 ===================================================

 Integral of the Total Core Density:                  45.99999991226612
 Relative Error:                                      -1.907E-09



 ========================
 Density Fitting (zlmFit)
 ========================
  
 ZlmFit Fit Quality: VERYGOOD       
  
 Max L-expansion:                        min:   0 max:   0
 Nr. of radial interpolation points:     min: 270 max: 270



 =====
 S C F  ***  ScaSCF  ***
 =====
  

 CYCLE    1
 SCF Error: norm([F,P])=      0.000000000000, max([F,P])=      0.000000000000
 orbitals (Q,E):
 ---------------
 S :1...4            ( 2.00   -36.7762)  ( 1.00   -21.6820)  ( 0.00   -12.9085)  ( 0.00    -7.1191)
 P :1...3            ( 6.00   -33.0866)  ( 0.00   -18.4007)  ( 0.00    -9.4584)
 D :1...2            (10.00   -25.1484)  ( 0.00   -11.3803)
[...]
    1.O         0.000000    0.000000    0.000000
 <Feb04-2021> <20:25:28>  >>>> CORORT
 <Feb04-2021> <20:25:28>  >>>> CLSMAT
 <Feb04-2021> <20:25:28>  >>>> ORTHON
 <Feb04-2021> <20:25:28>  >>>> GENPT
 <Feb04-2021> <20:25:28>  Block Length=  68
 <Feb04-2021> <20:25:28>  >>>> PTBAS
 <Feb04-2021> <20:25:28>  >>>> CYCLE
 <Feb04-2021> <20:25:28>              |Error|         MaxErr       Wt(A-DIIS)
 <Feb04-2021> <20:25:28>      1      0.00000000      0.00000000
 <Feb04-2021> <20:25:28>      2      2.51022395      1.83694100
 <Feb04-2021> <20:25:28>      3      2.38195714      1.61935802    100.0
 <Feb04-2021> <20:25:28>      4      0.46758430      0.27634710    100.0
 <Feb04-2021> <20:25:28>      5      0.50410652      0.30498859    100.0
 <Feb04-2021> <20:25:28>      6      0.01247625      0.00764533      6.7
 <Feb04-2021> <20:25:28>      7      0.00085022      0.00051605      0.0
 <Feb04-2021> <20:25:28>      8      0.00000244      0.00000146      0.0
 <Feb04-2021> <20:25:28>      9      0.00000001      0.00000000      0.0
 <Feb04-2021> <20:25:28>  SCF converged
 <Feb04-2021> <20:25:28>     10      0.00000000      0.00000000      0.0
 <Feb04-2021> <20:25:28>  >>>> POPAN
 <Feb04-2021> <20:25:28>  >>>> DEBYE
 <Feb04-2021> <20:25:28>  NORMAL TERMINATION
 <Feb04-2021> <20:25:28>  END
 <Feb04-2021> <20:25:29>  DIRAC 2019  RunTime: Feb04-2021 20:25:29  Nodes: 1  Procs: 1
 <Feb04-2021> <20:25:29>  NORMAL TERMINATION
 <Feb04-2021> <20:25:29>  END
 <Feb04-2021> <20:25:29>  ADF 2019  RunTime: Feb04-2021 20:25:29  Nodes: 1  Procs: 1
 <Feb04-2021> <20:25:29>  Carbon (DZ, 1s frozen)
 <Feb04-2021> <20:25:29>  RunType   : CREATE
 <Feb04-2021> <20:25:29>  Net Charge: 0 (Nuclei minus Electrons)
 <Feb04-2021> <20:25:29>  Symmetry  : ATOM
  Coordinates
    Atom         X           Y           Z   (Angstrom)
    1.C         0.000000    0.000000    0.000000
 <Feb04-2021> <20:25:29>  >>>> CORORT
 <Feb04-2021> <20:25:29>  >>>> CLSMAT
 <Feb04-2021> <20:25:29>  >>>> ORTHON
 <Feb04-2021> <20:25:29>  >>>> GENPT
 <Feb04-2021> <20:25:29>  Block Length=  68
 <Feb04-2021> <20:25:29>  >>>> PTBAS
 <Feb04-2021> <20:25:29>  >>>> CYCLE
 <Feb04-2021> <20:25:29>              |Error|         MaxErr       Wt(A-DIIS)
 <Feb04-2021> <20:25:29>      1      0.00000000      0.00000000
 <Feb04-2021> <20:25:29>      2      0.96385221      0.85255436
 <Feb04-2021> <20:25:29>      3      0.69816270      0.60759186    100.0
 <Feb04-2021> <20:25:29>      4      0.25244702      0.20719292    100.0
 <Feb04-2021> <20:25:29>      5      0.19639955      0.16352478    100.0
 <Feb04-2021> <20:25:30>      6      0.03180040      0.02617408     25.4
 <Feb04-2021> <20:25:30>      7      0.00638036      0.00527666      4.3
 <Feb04-2021> <20:25:30>      8      0.00018258      0.00015050      0.0
 <Feb04-2021> <20:25:30>      9      0.00000052      0.00000043      0.0
 <Feb04-2021> <20:25:30>     10      0.00000000      0.00000000      0.0
 <Feb04-2021> <20:25:30>  SCF converged
 <Feb04-2021> <20:25:30>     11      0.00000000      0.00000000      0.0
 <Feb04-2021> <20:25:30>  >>>> POPAN
 <Feb04-2021> <20:25:30>  >>>> DEBYE
 <Feb04-2021> <20:25:30>  NORMAL TERMINATION
 <Feb04-2021> <20:25:30>  END
 <Feb04-2021> <20:25:30>  DIRAC 2019  RunTime: Feb04-2021 20:25:30  Nodes: 1  Procs: 1
 <Feb04-2021> <20:25:30>  NORMAL TERMINATION
 <Feb04-2021> <20:25:30>  END
 <Feb04-2021> <20:25:30>  ADF 2019  RunTime: Feb04-2021 20:25:30  Nodes: 1  Procs: 1
 <Feb04-2021> <20:25:30>  Sulphur (DZ, 1s frozen)
 <Feb04-2021> <20:25:30>  RunType   : CREATE
 <Feb04-2021> <20:25:31>  Net Charge: 0 (Nuclei minus Electrons)
 <Feb04-2021> <20:25:31>  Symmetry  : ATOM
  Coordinates
    Atom         X           Y           Z   (Angstrom)
    1.S         0.000000    0.000000    0.000000
 <Feb04-2021> <20:25:31>  >>>> CORORT
 <Feb04-2021> <20:25:31>  >>>> CLSMAT
 <Feb04-2021> <20:25:31>  >>>> ORTHON
 <Feb04-2021> <20:25:31>  >>>> GENPT
 <Feb04-2021> <20:25:31>  Block Length=  81
 <Feb04-2021> <20:25:31>  >>>> PTBAS
 <Feb04-2021> <20:25:31>  >>>> CYCLE
 <Feb04-2021> <20:25:31>              |Error|         MaxErr       Wt(A-DIIS)
 <Feb04-2021> <20:25:31>      1      0.00000000      0.00000000
 <Feb04-2021> <20:25:31>      2     21.51261243      7.94990220    100.0
 <Feb04-2021> <20:25:31>      3      8.52424195      2.62505450    100.0
 <Feb04-2021> <20:25:31>      4      4.38544525      1.60446246    100.0
 <Feb04-2021> <20:25:31>      5      1.43256362      0.55140611    100.0
 <Feb04-2021> <20:25:31>      6      0.89172576      0.34614537    100.0
 <Feb04-2021> <20:25:31>      7      0.16625992      0.07286926     72.6
 <Feb04-2021> <20:25:31>      8      0.10006764      0.04307754     42.5
 <Feb04-2021> <20:25:31>      9      0.01425650      0.00614423      5.2
 <Feb04-2021> <20:25:31>     10      0.00065307      0.00028041      0.0
 <Feb04-2021> <20:25:31>     11      0.00000094      0.00000039      0.0
 <Feb04-2021> <20:25:31>     12      0.00000001      0.00000000      0.0
 <Feb04-2021> <20:25:31>  SCF converged
 <Feb04-2021> <20:25:31>     13      0.00000000      0.00000000      0.0
 <Feb04-2021> <20:25:31>  >>>> POPAN
 <Feb04-2021> <20:25:31>  >>>> DEBYE
 <Feb04-2021> <20:25:31>  NORMAL TERMINATION
 <Feb04-2021> <20:25:31>  END
 <Feb04-2021> <20:25:32>  ADF 2019  RunTime: Feb04-2021 20:25:32  Nodes: 1  Procs: 1
 <Feb04-2021> <20:25:32>  Au25 + Thiol + CYST compounds.
 <Feb04-2021> <20:25:32>  RunType   : SINGLE POINT
 <Feb04-2021> <20:25:32>  WARNING: Restricted Open-Shell calculation, Unrestricted setup may be needed
 <Feb04-2021> <20:25:32>  Net Charge: 0 (Nuclei minus Electrons)
 <Feb04-2021> <20:25:32>  Symmetry  : NOSYM
 <Feb04-2021> <20:25:32>  >>>> FRAGM
  Coordinates
    Atom         X           Y           Z   (Angstrom)
    1.Au        9.661751   10.648026   10.285558
    2.Au        9.368634   10.543131   13.123906
    3.Au       12.080783   10.750290   11.820340
    4.Au       10.325636   12.967465   11.783873
    5.Au       10.542370    8.254278   11.572074
    6.Au        7.401867   11.974267   11.315035
    7.Au        7.608384    9.044948   11.439032
    8.Au       11.644827   12.281076    9.082646
    9.Au       11.951879    9.311353    9.282977
   10.Au        8.713059   12.979753    8.947715
   11.Au        7.249523   10.444648    8.747793
   12.Au        9.102995    8.289813    8.828594
   13.Au        9.947535   10.738849    7.428298
   14.Au        6.411407   10.446129   13.855576
   15.Au        8.570673    7.758642   14.022669
   16.Au       10.714517   13.367833    6.301617
   17.Au       12.852443   10.788295    6.743125
   18.Au       13.509579    7.789261   11.419357
   19.Au       11.375319    6.369289    9.443804
   20.Au        8.099688   14.874428   11.141202
   21.Au        5.730000   13.261452    9.169057
   22.Au       13.283178   13.482700   11.468850
   23.Au       11.819198   12.199976   14.401823
   24.Au        6.159534    7.690605    9.081547
   25.Au        7.650838    8.865849    6.212584
   26.S        10.052795    6.165677   12.922892
   27.S         7.124620    8.905734   15.620516
   28.S         5.262505   12.278853   12.695972
   29.S        14.197344    9.166084    8.029746
   30.S         8.999319   14.854841    7.246252
   31.S        12.343028   12.264388    4.829316
   32.S         9.740448    6.171109    7.587981
   33.S        14.356041    9.815702   12.525651
   34.S        13.166957    5.410441   10.859224
   35.S         5.190513   11.448405    7.630871
   36.S        10.274958   15.484683   12.186267
   37.S         5.780616   15.332425   10.459493
   38.S        10.035509   10.990693   15.548619
   39.S        13.218742   14.287625    9.156349
   40.S        13.939785   13.275217   13.818870
   41.S         9.516467    9.921587    5.033512
   42.S         6.163997    6.946155   11.423641
   43.S         5.446231    7.918027    6.744825
   44.C         8.524039    4.776662    8.158633
   45.C         8.478967    3.658442    7.085824
   46.H         7.538348    5.248678    8.282356
   47.H         8.865140    4.391052    9.130791
   48.N         7.385050    2.720965    7.307102
   49.H         9.446725    3.125655    7.075080
   50.H         8.345738    4.110784    6.087468
   51.C        14.538419    5.007468    9.545875
   52.C        13.953863    4.345416    8.274414
   53.H        15.242443    4.337443   10.066605
   54.H        15.052860    5.940696    9.290243
   55.N        14.927476    4.322249    7.189124
   56.H        13.073776    4.933004    7.955876
   57.H        13.578866    3.335725    8.534051
   58.C        15.458427   10.579288   11.147871
   59.C        16.601038    9.643172   10.736734
   60.H        15.846965   11.521085   11.560617
   61.H        14.811719   10.791217   10.288608
   62.N        17.261698   10.209253    9.522750
   63.H        16.191085    8.627724   10.566995
   64.H        17.344726    9.581900   11.548212
   65.C         5.914639   12.229527    5.996650
   66.C         5.505335   11.405114    4.761322
   67.H         7.007015   12.265405    6.099258
   68.H         5.512852   13.252775    5.940052
   69.N         6.099677   11.921284    3.523991
   70.H         4.406697   11.392078    4.660165
   71.H         5.838955   10.362479    4.889509
   72.C         6.082427   16.662934    9.084773
   73.C         4.832416   16.861935    8.205867
   74.H         6.927139   16.322228    8.471886
   75.H         6.351345   17.588720    9.617409
   76.N         5.030701   17.892272    7.179770
   77.H         3.968718   17.147546    8.828748
   78.H         4.580889   15.908659    7.710340
   79.C         9.635894   15.687267   13.997184
   80.C         8.420650   16.629164   14.073113
   81.H        10.478035   16.091067   14.579699
   82.H         9.378947   14.691447   14.372690
   83.N         7.864778   16.619457   15.446212
   84.H         7.669900   16.295540   13.329430
   85.H         8.731568   17.647701   13.784332
   86.C         5.736490   13.721228   13.892732
   87.C         5.264951   13.457330   15.331448
   88.H         5.258344   14.621557   13.479012
   89.H         6.825903   13.841411   13.859536
   90.N         5.758906   14.538345   16.221133
   91.H         5.633600   12.462822   15.650214
   92.H         4.162272   13.418996   15.350451
   93.C         5.677973    7.637318   15.801911
   94.C         6.193228    6.317171   16.413636
   95.N         5.139761    5.321366   16.583724
   96.H         6.663528    6.519984   17.391471
   97.H         6.976832    5.900862   15.756565
   98.H         5.248307    7.461192   14.808792
   99.H         4.931263    8.119193   16.453594
  100.C        11.505365    6.096436   14.192322
  101.C        11.867508    7.465206   14.789801
  102.H        12.355549    5.673329   13.638585
  103.H        11.195901    5.402717   14.988788
  104.N        13.043130    7.325595   15.651529
  105.H        11.022107    7.829542   15.396799
  106.H        12.008405    8.190335   13.960174
  107.C        10.791939    8.487277    4.944239
  108.C        10.299138    7.330767    4.066484
  109.H        10.963957    8.140909    5.969126
  110.H        11.714134    8.928249    4.540433
  111.N        11.238212    6.182459    4.235517
  112.H        10.305037    7.634930    3.007130
  113.H         9.257374    7.082239    4.351565
  114.C         5.534168    6.097122    6.128004
  115.C         4.526052    5.242764    6.902359
  116.H         6.553582    5.717878    6.256570
  117.H         5.290225    6.141836    5.053715
  118.N         4.659598    3.818094    6.485021
  119.H         3.508871    5.659820    6.759428
  120.H         4.765674    5.295664    7.977696
  121.C         4.389924    7.535796   11.934665
  122.C         3.309687    7.015652   10.965642
  123.H         4.386448    8.633417   11.983119
  124.H         4.232772    7.124608   12.943452
  125.N         1.949050    7.371245   11.370296
  126.H         3.382847    5.917527   10.883968
  127.H         3.501876    7.430486    9.960435
  128.C        14.051752    7.572307    6.976961
  129.C        14.542893    7.730559    5.536227
  130.H        13.002241    7.254405    6.997828
  131.H        14.671455    6.828240    7.488015
  132.N        14.292146    6.431417    4.855750
  133.H        15.626965    7.935643    5.535852
  134.H        14.034681    8.593861    5.059306
  135.C        13.915709   13.407478    4.869401
  136.C        15.223487   12.600081    5.062471
  137.H        13.790656   14.121776    5.690198
  138.H        13.906163   13.949207    3.909398
  139.N        16.338951   13.466234    5.431234
  140.H        15.424909   12.009971    4.146652
  141.H        15.057384   11.869915    5.875151
  142.C        10.087934   16.078577    8.246849
  143.C        11.106229   16.767633    7.336423
  144.H         9.403564   16.812438    8.692755
  145.H        10.593493   15.506187    9.032753
  146.N        12.013616   17.608311    8.176541
  147.H        10.597174   17.436994    6.625454
  148.H        11.681309   16.002590    6.782344
  149.C         8.833475   12.380584   16.113888
  150.C         9.508865   13.347739   17.097194
  151.H         7.993776   11.861420   16.597896
  152.H         8.473032   12.906181   15.222507
  153.N         8.547449   14.415358   17.469342
  154.H        10.434086   13.744522   16.635077
  155.H         9.807784   12.791122   18.000931
  156.C        13.685101   15.108548   14.371452
  157.C        13.406430   15.201030   15.882379
  158.H        14.626063   15.616837   14.105027
  159.H        12.858895   15.527961   13.778157
  160.N        14.441343   14.683384   16.775596
  161.H        12.469310   14.663422   16.104510
  162.H        13.237857   16.268771   16.123243
  163.C        14.842804   13.576792    8.418445
  164.C        16.098366   13.922099    9.224927
  165.H        14.925449   14.007400    7.414087
  166.H        14.720542   12.489042    8.343918
  167.N        17.236316   13.216383    8.575316
  168.H        15.947983   13.637995   10.286413
  169.H        16.275656   15.010148    9.188781
  170.H         4.822116    4.801788   15.767285
  171.H         4.469283    5.437902   17.341851
  172.H         6.606576   14.288347   16.773497
  173.H         5.027330   14.966675   16.798654
  174.H        13.949358    7.310172   15.179429
  175.H        13.032004    7.834791   16.535877
  176.H         8.562638   15.239322   16.831431
  177.H         8.604846   14.689803   18.457064
  178.H        14.536695   13.666259   16.813051
  179.H        15.328491   15.191733   16.789297
  180.H        17.317807   12.234423    8.913337
  181.H        18.127304   13.721328    8.663697
  182.H        16.721457    9.977276    8.675974
  183.H        18.240732    9.907388    9.427047
  184.H        14.756220    4.904208    6.353038
  185.H        15.530620    3.507569    7.092101
  186.H         7.459666    2.106060    8.119932
  187.H         6.435764    3.045224    7.039755
  188.H        11.194618    5.515534    3.452664
  189.H        11.069254    5.702001    5.131795
  190.H         4.504738    3.683615    5.475784
  191.H         4.043409    3.193379    7.024226
  192.H         1.676980    8.351761   11.281116
  193.H         1.548717    6.879286   12.170567
  194.H         5.780360   12.839219    3.205763
  195.H         7.100736   11.750719    3.399907
  196.H         5.063306   18.860875    7.507284
  197.H         5.716062   17.676729    6.450992
  198.H         7.005966   16.038625   15.554064
  199.H         7.771657   17.550175   15.866371
  200.H        12.453725   17.067809    8.939911
  201.H        12.742106   18.085963    7.621944
  202.H        16.927485   13.842169    4.689656
  203.H        16.759697   13.354862    6.366543
  204.H        14.937859    6.255197    4.075220
  205.H        13.295915    6.343002    4.561124
  206.O        10.002903   19.262403    8.495052
  207.C        11.083587   19.148705    9.068479
  208.O        11.886449   19.525915    9.919154
 <Feb04-2021> <20:25:34>  >>>> CORORT
 <Feb04-2021> <20:25:41>  >>>> CLSMAT
 <Feb04-2021> <20:25:45>  >>>> ORTHON
 <Feb04-2021> <20:25:55>  >>>> GENPT
 <Feb04-2021> <20:26:05>  Block Length= 128
 <Feb04-2021> <20:26:39>  >>>> PTBAS
 <Feb04-2021> <20:34:43>  >>>> CYCLE
 <Feb04-2021> <20:39:52>              |Error|         MaxErr       Wt(A-DIIS)
 <Feb04-2021> <20:39:52>      1      8.13856817      0.40845428
 <Feb04-2021> <20:48:36>      2      4.74564941      0.33846050    100.0
 <Feb04-2021> <20:57:26>      3     13.60138355      0.72376701    100.0
 <Feb04-2021> <21:06:27>      4      4.27807198      0.31493413    100.0
 <Feb04-2021> <21:15:30>      5      7.23278995      0.40258169    100.0
 <Feb04-2021> <21:24:20>      6      2.34561647      0.21290233    100.0
 <Feb04-2021> <21:33:25>      7      9.44045871      0.65763384    100.0
 <Feb04-2021> <21:42:23>      8      4.46763289      0.38919373    100.0
 <Feb04-2021> <21:51:16>      9      4.04529458      0.34053771    100.0
 <Feb04-2021> <22:00:07>     10      1.09797576      0.21566094    100.0
 <Feb04-2021> <22:09:05>     11      3.62580754      0.47718685    100.0
 <Feb04-2021> <22:17:58>     12      1.14671949      0.29619732    100.0
 <Feb04-2021> <22:26:50>     13      1.88441215      0.36730592    100.0
 <Feb04-2021> <22:35:43>     14      0.87777278      0.10992925    100.0
 <Feb04-2021> <22:44:36>     15      0.72452154      0.15617517    100.0
 <Feb04-2021> <22:53:31>     16      0.36643166      0.05450845     54.0
 <Feb04-2021> <23:02:24>     17      0.36227224      0.02258060     21.8
 <Feb04-2021> <23:11:18>     18      0.13560348      0.00928226      8.4
 <Feb04-2021> <23:20:11>     19      0.08313701      0.00923997      8.3
 <Feb04-2021> <23:29:04>     20      0.04073921      0.00351296      2.5
 <Feb04-2021> <23:37:57>     21      0.02387555      0.00220861      1.2
 <Feb04-2021> <23:46:51>     22      0.01447799      0.00103982      0.0
 <Feb04-2021> <23:55:43>     23      0.00600499      0.00045700      0.0
 <Feb05-2021> <00:04:34>     24      0.00359266      0.00031092      0.0
 <Feb05-2021> <00:13:27>     25      0.00209558      0.00023337      0.0
 <Feb05-2021> <00:22:20>     26      0.00102224      0.00008569      0.0
 <Feb05-2021> <00:31:13>     27      0.00106888      0.00009651      0.0
 <Feb05-2021> <00:40:07>     28      0.00063728      0.00004903      0.0
 <Feb05-2021> <00:49:00>     29      0.00043693      0.00002575      0.0
 <Feb05-2021> <00:57:56>     30      0.00034025      0.00002774      0.0
 <Feb05-2021> <01:06:49>     31      0.00006626      0.00000599      0.0
 <Feb05-2021> <01:15:43>     32      0.00003907      0.00000417      0.0
 <Feb05-2021> <01:24:39>     33      0.00006877      0.00000996      0.0
 <Feb05-2021> <01:33:46>     34      0.00003707      0.00000333      0.0
 <Feb05-2021> <01:42:52>     35      0.00002573      0.00000243      0.0
 <Feb05-2021> <01:51:56>     36      0.00001367      0.00000169      0.0
 <Feb05-2021> <02:01:01>     37      0.00000305      0.00000034      0.0
 <Feb05-2021> <02:03:08>  SCF converged
 <Feb05-2021> <02:10:06>     38      0.00000340      0.00000033      0.0
 <Feb05-2021> <02:10:21>  WARNING: partially occupied orbitals
 <Feb05-2021> <02:10:21>   Solutions with partially occupied orbitals may not be
 <Feb05-2021> <02:10:21>   lowest in energy. You might consider lowering the
 <Feb05-2021> <02:10:21>   symmetry in the input and explicitly specifying integer
 <Feb05-2021> <02:10:21>   occupations. In that case always check that you obtain
 <Feb05-2021> <02:10:21>   an aufbau solution.
 <Feb05-2021> <02:16:50>  >>>> TOTEN
 <Feb05-2021> <03:57:08>  >>>> POPAN
 <Feb05-2021> <03:57:12>  >>>> DEBYE
 <Feb05-2021> <03:57:38>  >>>> AMETS
 <Feb05-2021> <03:58:10>   Bond Energy         -36.86989273 a.u.
 <Feb05-2021> <03:58:10>   Bond Energy       -1003.28082852 eV
 <Feb05-2021> <03:58:10>   Bond Energy      -23136.21       kcal/mol
 <Feb05-2021> <03:58:10>  >>>> POPUL
 <Feb05-2021> <03:58:49>  NORMAL TERMINATION with warnings
 <Feb05-2021> <03:58:51>  END
