
 *******************************************************************************
 *                                                                             *
 *  -------------------------------------                                      *
 *   Amsterdam Density Functional  (ADF)         2019                          *
 *  -------------------------------------                                      *
 *                                               r74351 2019-04-25             *
 *                                                                             *
 *                                                                             *
 *                            =====================                            *
 *                            |                   |                            *
 *                            |     D I R A C     |                            *
 *                            |                   |                            *
 *                            =====================                            *
 *                                                                             *
 *                                                                             *
 *   Online information and documentation:  https://www.scm.com/support/       *
 *   E-mail:  support@scm.com   info@scm.com                                   *
 *                                                                             *
 *   Scientific publications using ADF results must be properly referenced     *
 *   See the User Manuals (or the web site) for recommended citations          *
 *   The terms and conditions of the End User License Agreement apply to       *
 *   the use of ADF, https://www.scm.com/license-terms/                        *
 *                                                                             *
 **********************  x86_64_linux_intel / intelmpi  ************************
 
 Licensed to: Dr. Emilie Guidez / UC Denver / Denver / CO / USA
 SCM User ID: u20218
  
 DIRAC 2019  RunTime: Feb04-2021 20:27:22  Nodes: 1  Procs: 1

 Temporary files are created in /home/chemistry/limjae/scr/kid_0.258658968

1
 HYDROGEN ATOM RELATIVISTIC, Point Nuc, A and c from libtc   
 N J RN H ZN XION ANUC CLIGHT
 5000    1100.00000000197.36710137  1.00000000  0.00000000    1.007825  0.1370360E+03
  PH   PHI     EPS        DEL        DELRVR
  0.30  0.30     2500.00  0.00001000  0.00001000
 IDIRC  NC1  NDEBU NPRIN  IPUN IRCOR IWCOR
   1   300     0     0     0     0     0
   XALPHA      XLATTER      RNUC
  0.70000000  0.00000000  0.00000000 Point Charge
   XN   XL   XJ      XE          XZ      XDELL
  1.0  0.0  0.5      -1.000       1.000     0.00000
 ICORP=  0  NPCL=  0  DEMP=0.00  PEPS=0.000000
 R(1)=  0.1000000E-08 D=  0.1005080E+01 RNUC=  0.0000000E+00
 converged at cycle   32  DENSITY AVERAGING    0.2400
  MAXIMUM ERROR IN R.V(R) IS   0.79874357E-05
 Q,EY,EV,EZ,ESUM,ETOT,RHO  0.100000E+01 -0.266614E+00 -0.619969E+00 -0.910779E+00 -0.203940E+00 -0.415998E+00  0.337036E-17


 DIRAC CALCULATION
1                    HYDROGEN ATOM RELATIVISTIC, Point Nuc, A and c from libtc


 EXCHANGE COEFFICIENT=  0.7000000           TAIL CORRECTION=  0.           NUCLEAR RADIUS=  0.000E+00
0                       ORBITAL    N    L    J     ELECTRONS     EIGENVALUE                DELTA OF EIGENV.

                          1S1/2  1.0  0.0  0.5     1.000       -0.2039397E+00                 0.2720093E-06


                                        NUCLEAR CHARGE=    1.000000
                            INTEGRAL OF CHARGE DENSITY=    1.000000
                           SUM OF THE ORBITAL ENERGIES=     -0.2039
                                          TOTAL ENERGY=     -0.4160
                                        KINETIC ENERGY=      0.4160
                             NUCLEAR ATTRACTION ENERGY=     -0.9108
                             ELECTRON REPULSION ENERGY=      0.2787
                                       EXCHANGE ENERGY=     -0.2000

 *******************************************************************************

                             D I R A C   E X I T
 NORMAL TERMINATION



 =================
 Timing Statistics
 =================
  
 Total Used :                     CPU=        0.07      System=        0.01     Elapsed=        0.13

 Calls  Section                     ( Mean, Percentage )
 ---------------------------------------------------------------------------------------------------
     2  ><      ................      0.00    0.01             0.00    0.18             0.00    0.02
     1  EXIT PROCEDURE .........      0.07   99.99             0.01   99.82             0.13   99.98


 Currently Open Files (EXIT00)
 ====================

 Unit    Access Format  Status   Type       Ident (file)
 -------------------------------------------------------
   3      SEQ    FORM   TRANSP  NORMAL      LOGFILE
                                          ( logfile )
 
Create H   file=DZ-H
XC
 GGA PBE
End
relativistic ZORA
Corepotentials t12.rel
End

 *******************************************************************************
 *                                                                             *
 *  -------------------------------------                                      *
 *   Amsterdam Density Functional  (ADF)         2019                          *
 *  -------------------------------------                                      *
 *                                               r74351 2019-04-25             *
 *                                                                             *
 *                                                                             *
 *                              =================                              *
 *                              |               |                              *
 *                              |     A D F     |                              *
 *                              |               |                              *
 *                              =================                              *
 *                                                                             *
 *                                                                             *
 *   Online information and documentation:  https://www.scm.com/support/       *
 *   E-mail:  support@scm.com   info@scm.com                                   *
 *                                                                             *
 *   Scientific publications using ADF results must be properly referenced     *
 *   See the User Manuals (or the web site) for recommended citations          *
 *   The terms and conditions of the End User License Agreement apply to       *
 *   the use of ADF, https://www.scm.com/license-terms/                        *
 *                                                                             *
 **********************  x86_64_linux_intel / intelmpi  ************************
 
 Licensed to: Dr. Emilie Guidez / UC Denver / Denver / CO / USA
 SCM User ID: u20218
  
 ADF 2019  RunTime: Feb04-2021 20:27:22  Nodes: 1  Procs: 1

 Temporary files are created in /home/chemistry/limjae/scr/kid_0.1060222085

 Hydrogen (DZ)



 ===========================
 A T T A C H E D   F I L E S
 ===========================
  
 CREATE - Data File:    DZ-H
                        Hydrogen (DZ)
 Core Potentials:
         file : t12.rel



 ===============================
 M O D E L   P A R A M E T E R S
 ===============================
  
 DENSITY FUNCTIONAL POTENTIAL (scf)
    LDA:                               PW92                                    == Not Default ==
    Gradient Corrections:              PBEc PBEx                               == Not Default ==

 SPIN  (restricted / unrestr.)
    Molecule:                          Restricted                               

 OTHER ASPECTS
    Relativistic Corrections:          scalar (ZORA,MAPA)                      == Not Default ==

    Nuclear Charge Density Model:      Point Charge Nuclei                      
    Core Treatment:                    Frozen Orbital(s)                        

    Hyperfine or Zeeman Interaction:   ---                                      



 =====================================
 S Y M M E T R Y ,   E L E C T R O N S
 =====================================
  
 Symmetry: ATOM

 Irreducible Representations, including subspecies
 -------------------------------------------------
 S
 P:x  P:y  P:z
 D:z2  D:x2-y2  D:xy  D:xz  D:yz
 F:z3  F:z  F:xyz  F:z2x  F:z2y  F:x  F:y


 Configuration of Valence Electrons
 ==================================

          Occupation Numbers
          -------------------------------------------------
 S        1
 P        0
 D        0
 F        0
          -------------------------------------------------

 Total:   1

 Net Charge: 0 (Nuclei minus Electrons)

 Preset values for MO occupations will be applied through SCF cycle no. 1000000
 Thereafter, the program will assign electrons to MOs that are spatially
 similar to the occupied MOs in a "reference" cycle ("KeepOrbitals").
 The reference cycle is always the PREVIOUS cycle: it will evolve with
 the SCF procedure.



 ================================
 (Slater-type)  F U N C T I O N S  ***  (Basis and Fit)  ***
 ================================
  

 Atom Type    1  (H)
 ==============

 Valence Basis Sets:   2
 -----------------------
   1 S    0.760000
   1 S    1.280000


 BAS: List of all Elementary Cartesian Basis Functions
 =====================================================

 The numbering in the list below (to the right of the function characteristics) is referred
 to in print-outs of MO eigenvectors and Mulliken populations in the BAS representation
 (as contrasted to the SFO representation).

 Notes:
 1. The functions are characterized by a polynomial prefactor (powers of x,y,z and r) and
    an exponential decay factor alpha.
 2. Since the basis sets are specific for an atom TYPE, the individual functions occur on
    all atoms of that type.
 3. The word 'Core' in the left margin signals that it is a Core Function (CF) : not a
    degree of freedom in the valence set, but only used to ensure orthogonalization of
    the other valence basis functions on the frozen Core Orbitals.


 (power of) X  Y  Z  R     Alpha  on Atom
            ==========     =====     ==========

 H                                    1
                                  ---------------------------------------------------------------------------
            0  0  0  0     0.760      1
            0  0  0  0     1.280      2

 Total number of charge fitting functions (nprimf)        50
 Total number of Cartesian basis functions (naos)          2
 Total number of Cartesian core functions  (ncos)          0



 BAS: List of all Elementary Cartesian Basis Functions
 =====================================================

 The numbering in the list below (to the right of the function characteristics) is referred
 to in print-outs of MO eigenvectors and Mulliken populations in the BAS representation
 (as contrasted to the SFO representation).

 Notes:
 1. The functions are characterized by a polynomial prefactor (powers of x,y,z and r) and
    an exponential decay factor alpha.
 2. Since the basis sets are specific for an atom TYPE, the individual functions occur on
    all atoms of that type.
 3. The word 'Core' in the left margin signals that it is a Core Function (CF) : not a
    degree of freedom in the valence set, but only used to ensure orthogonalization of
    the other valence basis functions on the frozen Core Orbitals.


 (power of) X  Y  Z  R     Alpha  on Atom
            ==========     =====     ==========

 H                                    1
                                  ---------------------------------------------------------------------------
            0  0  0  0     0.760      1
            0  0  0  0     1.280      2
1
 ***************************************************************************************************



                                              ***********************
                                              *  T E C H N I C A L  *
                                              ***********************
  



 =============================================================
 P A R A L L E L I Z A T I O N  and  V E C T O R I Z A T I O N
 =============================================================
  
 Nr of parallel processes:                                1
 Maximum vector length in NumInt loops:                 128



 =====================
 S C F   U P D A T E S
 =====================
  
 Max. nr. of cycles:                               300
 Convergence criterion:                              0.0000000100
   secondary criterion:                              0.0000000100

 Mix parameter (when DIIS does not apply):           0.2000000000
 Special mix parameter for the first cycle:          1.0000000000
 Mixed ADIIS+SDIIS will be used                  
    Max number of expansion vectors:                10
    Pure ADIIS when Max([F,P]) is above              0.1000000000
    Pure SDIIS when Max([F,P]) is below              0.0010000000
 Automatic ElectronSmearing (in case of problematic SCF convergence) disabled



 =================
 P R E C I S I O N  ***  (General: NumInt, NeglectFunctionTails, ...)  ***
 =================
  

 NumInt:           Target precision:                12.0000000000
 -------           Initial precision:               10.0000000000
                   Min. precision (optimization):   10.0000000000

 Neglect Functions:          Basis functions:        0.1000000000E-13
 ------------------          Fit functions:          0.1000000000E-13



 ===========================
 L I N E A R   S C A L I N G
 ===========================
  

 Cut-off radii density fit:                        0.1000000000E-97
 Overlap cut-off criterion AO matrix elements:     0.1000000000E-97
 Cut-offs for Coulomb potential and fitted density:0.1000000000E-97
 Cut-off criterion for Coulomb multipole terms:    0.1000000000E-97
 Progressive Convergence parameter:                 0.000000000    
1
 ***************************************************************************************************



                                            ***************************
                                            *  C O M P U T A T I O N  *
                                            ***************************
  

 Number of elements of the density matrix on this node (used, total):         3         3



 ===========================================
 Numerical Integration : Fuzzy Cells (Becke)
 ===========================================
  
 Becke grid quality: VERYGOOD       
  
 Lebedev angular grid order:             min:  13 max:  41
 Nr. of radial points:                   min:  64 max:  64

 Total nr. of points:         64
 Nr. of blocks:                1
 Block length:                64
 Nr. of dummy points:          0


 Test of Precision of the Numerical Integration Grid
 ===================================================

 Integral of the Total Core Density:                   0.00000000000000



 ========================
 Density Fitting (zlmFit)
 ========================
  
 ZlmFit Fit Quality: VERYGOOD       
  
 Max L-expansion:                        min:   0 max:   0
 Nr. of radial interpolation points:     min: 120 max: 120



 =====
 S C F  ***  ScaSCF  ***
 =====
  

 CYCLE    1
 SCF Error: norm([F,P])=      0.000000000000, max([F,P])=      0.000000000000
 orbitals (Q,E):
 ---------------
 S :1...2            ( 1.00    -0.4983)  ( 0.00     0.1718)

 CYCLE    2
 SCF Error: norm([F,P])=      0.033001933656, max([F,P])=      0.033001933656
 orbitals (Q,E):
 ---------------
 S :1...2            ( 1.00    -0.2268)  ( 0.00     0.4005)

 CYCLE    3
  SDIIS (wt  0.000):  0.1528  0.8472
 A-DIIS (wt  1.000):  0.0000  1.0000
  DIIS coefficients:  0.0000  1.0000
 SCF Error: norm([F,P])=      0.005954454000, max([F,P])=      0.005954454000
 orbitals (Q,E):
 ---------------
 S :1...2            ( 1.00    -0.2417)  ( 0.00     0.3884)

 CYCLE    4
  SDIIS (wt  1.000):  0.1463  0.8537
 A-DIIS (wt  0.000):  0.0000  1.0000
  DIIS coefficients:  0.1463  0.8537
 SCF Error: norm([F,P])=      0.001020399433, max([F,P])=      0.001020399433
 orbitals (Q,E):
 ---------------
 S :1...2            ( 1.00    -0.2394)  ( 0.00     0.3902)

 CYCLE    5
  SDIIS (wt  1.000):  0.0014  0.9986
  DIIS coefficients:  0.0014  0.9986
 SCF Error: norm([F,P])=      0.000001436995, max([F,P])=      0.000001436995
 orbitals (Q,E):
 ---------------
 S :1...2            ( 1.00    -0.2394)  ( 0.00     0.3902)

 CYCLE    6
  SDIIS (wt  1.000): -0.0002  1.0002
  DIIS coefficients: -0.0002  1.0002
 SCF Error: norm([F,P])=      0.000000000334, max([F,P])=      0.000000000334
 orbitals (Q,E):
 ---------------
 S :1...2            ( 1.00    -0.2394)  ( 0.00     0.3902)

 SCF CONVERGED

 CYCLE    7
1
 ***************************************************************************************************



                                                *******************
                                                *  R E S U L T S  *
                                                *******************
  
 *** Using FIT density in Focky
  SDIIS (wt  1.000):  0.0000  1.0000
  DIIS coefficients:  0.0000  1.0000
 SCF Error: norm([F,P])=      0.000000000000, max([F,P])=      0.000000000000

 Scaled ZORA Orbital Energies, per Irrep and Spin:
 =================================================
                        Occup              E (au)              E (eV)       Diff (eV) with prev. cycle
                        -----      --------------------        ------       --------------------------
 S
               1        1.000     -0.23939248892723E+00        -6.514               9.37E-14
               2        0.000      0.39021645958604E+00        10.618


 Partially Occupied:
               1 S                -0.23939248892723E+00
  
 LUMO :        2 S                 0.39021645958604E+00
  


 All Electron Calculation, thus no Orbital Energies of the Core Orbitals are calculated



 =======================================
 M U L L I K E N   P O P U L A T I O N S
 =======================================
  
 The survey below gives for each atom:
 a) the total charge (Z minus electrons)
 b) the net spin polarization (nr of electrons spin-A minus spin-B)
 c) for each spin the atomic electron valence density (integrated) per L-value.

 Atom              Charge    Spin density          S         P         D         F
 ----              ------    ------------       ------    ------    ------    ------
 1 H              -0.0000                       1.0000    0.0000    0.0000    0.0000

 Populations of individual BAS functions
 ----------------------------------------
 1 H            0.6465  0.3535

 Gross Charges per Atom (Z minus electrons)
 ==========================================
            -0.0000
 Net Total: -0.00000000



 =======================================================================
 Electrostatic potential at the Nuclei due to electrons and other nuclei
 =======================================================================
  
         Atom                  Potential
         ----                  ---------
     1)   H                   0.94379605
 
 
 ========================
 No memory problems found
 ========================
 
 Maximum number of active allocate calls:         264
 
 *******************************************************************************

                             A D F   E X I T
 NORMAL TERMINATION



 =================
 Timing Statistics
 =================
  
 Total Used :                     CPU=        0.47      System=        0.06     Elapsed=        0.74

 Calls  Section                     ( Mean, Percentage )
 ---------------------------------------------------------------------------------------------------
     3  ><      ................      0.00    1.03             0.00    2.63             0.00    1.29
     1  INIT    ................      0.09   19.37             0.01   12.63             0.11   15.38
     1  GEOMET  ................      0.03    6.95             0.01   16.68             0.07    9.51
     1  INPUTA  ................      0.01    1.30             0.00    0.85             0.01    1.46
     1  MAINSY  ................      0.02    3.97             0.00    6.57             0.04    5.59
     1  SYMFIT  ................      0.00    0.46             0.00    0.05             0.00    0.36
     1  CORORT  ................      0.00    0.42             0.00    0.04             0.00    0.57
     1  SYMORB  ................      0.00    0.08             0.00    1.61             0.00    0.32
     1  CLSMAT  ................      0.01    1.97             0.00    0.40             0.01    1.96
     1  ORTHON  ................      0.01    1.73             0.00    0.69             0.01    1.55
     1  GENPT   ................      0.01    2.67             0.00    7.36             0.03    3.63
     1  PTBAS   ................      0.01    1.37             0.00    0.00             0.01    1.74
     7  FOCKY   ................      0.03   42.44             0.00   25.23             0.04   34.82
     7  FOCKTR  ................      0.00    1.36             0.00    1.10             0.00    1.92
     7  SDIIS   ................      0.00    5.32             0.00   12.58             0.01    8.27
     1  COREPS  ................      0.02    3.27             0.00    7.06             0.03    3.46
     1  POPAN   ................      0.01    1.35             0.00    1.54             0.01    1.59
     1  DEBYE   ................      0.00    0.56             0.00    0.00             0.00    0.67
     1  EXIT PROCEDURE .........      0.02    4.38             0.00    2.96             0.04    5.91


 Currently Open Files (EXIT00)
 ====================

 Unit    Access Format  Status   Type       Ident (file)
 -------------------------------------------------------
   3      SEQ    FORM   TRANSP  NORMAL      LOGFILE
                                          ( logfile )

 ***************************************************************************************************
 (LOGFILE)
 <Feb04-2021> <20:27:22>  DIRAC 2019  RunTime: Feb04-2021 20:27:22  Nodes: 1  Procs: 1
 <Feb04-2021> <20:27:22>  NORMAL TERMINATION
 <Feb04-2021> <20:27:22>  END
 <Feb04-2021> <20:27:22>  ADF 2019  RunTime: Feb04-2021 20:27:22  Nodes: 1  Procs: 1
 <Feb04-2021> <20:27:22>  Hydrogen (DZ)
 <Feb04-2021> <20:27:22>  RunType   : CREATE
 <Feb04-2021> <20:27:22>  Net Charge: 0 (Nuclei minus Electrons)
 <Feb04-2021> <20:27:22>  Symmetry  : ATOM
  Coordinates
    Atom         X           Y           Z   (Angstrom)
    1.H         0.000000    0.000000    0.000000
 <Feb04-2021> <20:27:22>  >>>> CORORT
 <Feb04-2021> <20:27:22>  >>>> CLSMAT
 <Feb04-2021> <20:27:22>  >>>> ORTHON
 <Feb04-2021> <20:27:22>  >>>> GENPT
 <Feb04-2021> <20:27:22>  Block Length=  64
 <Feb04-2021> <20:27:22>  >>>> PTBAS
 <Feb04-2021> <20:27:22>  >>>> CYCLE
 <Feb04-2021> <20:27:22>              |Error|         MaxErr       Wt(A-DIIS)
 <Feb04-2021> <20:27:22>      1      0.00000000      0.00000000
 <Feb04-2021> <20:27:22>      2      0.03300193      0.03300193
 <Feb04-2021> <20:27:22>      3      0.00595445      0.00595445    100.0
 <Feb04-2021> <20:27:22>      4      0.00102040      0.00102040      0.0
 <Feb04-2021> <20:27:22>      5      0.00000144      0.00000144      0.0
 <Feb04-2021> <20:27:22>      6      0.00000000      0.00000000      0.0
 <Feb04-2021> <20:27:22>  SCF converged
 <Feb04-2021> <20:27:22>      7      0.00000000      0.00000000      0.0
 <Feb04-2021> <20:27:23>  >>>> POPAN
 <Feb04-2021> <20:27:23>  >>>> DEBYE
 <Feb04-2021> <20:27:23>  NORMAL TERMINATION
 <Feb04-2021> <20:27:23>  END

 *******************************************************************************
 *                                                                             *
 *  -------------------------------------                                      *
 *   Amsterdam Density Functional  (ADF)         2019                          *
 *  -------------------------------------                                      *
 *                                               r74351 2019-04-25             *
 *                                                                             *
 *                                                                             *
 *                            =====================                            *
 *                            |                   |                            *
 *                            |     D I R A C     |                            *
 *                            |                   |                            *
 *                            =====================                            *
 *                                                                             *
 *                                                                             *
 *   Online information and documentation:  https://www.scm.com/support/       *
 *   E-mail:  support@scm.com   info@scm.com                                   *
 *                                                                             *
 *   Scientific publications using ADF results must be properly referenced     *
 *   See the User Manuals (or the web site) for recommended citations          *
 *   The terms and conditions of the End User License Agreement apply to       *
 *   the use of ADF, https://www.scm.com/license-terms/                        *
 *                                                                             *
 **********************  x86_64_linux_intel / intelmpi  ************************
 
 Licensed to: Dr. Emilie Guidez / UC Denver / Denver / CO / USA
 SCM User ID: u20218
  
 DIRAC 2019  RunTime: Feb04-2021 20:27:23  Nodes: 1  Procs: 1

 Temporary files are created in /home/chemistry/limjae/scr/kid_0.1059192784

1
 NITROGEN ATOM 1s CORE RELATIVISTIC, Point Nuc, A and c from 
 N J RN H ZN XION ANUC CLIGHT
 5000    4100.00000000197.36710137  7.00000000  0.00000000   14.003074  0.1370360E+03
  PH   PHI     EPS        DEL        DELRVR
  0.30  0.30     2500.00  0.00001000  0.00001000
 IDIRC  NC1  NDEBU NPRIN  IPUN IRCOR IWCOR
   1   300     0     0     0     0     1
   XALPHA      XLATTER      RNUC
  0.70000000  0.00000000  0.00000000 Point Charge
   XN   XL   XJ      XE          XZ      XDELL
  1.0  0.0  0.5      -5.000       2.000     0.00000
  2.0  0.0  0.5      -1.000       2.000     0.00000
  2.0  1.0  0.5      -1.000       2.000     0.00000
  2.0  1.0  1.5      -1.000       1.000     0.00000
 ICORP=  0  NPCL=  0  DEMP=0.00  PEPS=0.000000
 R(1)=  0.1000000E-08 D=  0.1005080E+01 RNUC=  0.0000000E+00
 converged at cycle   25  DENSITY AVERAGING    0.3000
  MAXIMUM ERROR IN R.V(R) IS   0.97905511E-05
 Q,EY,EV,EZ,ESUM,ETOT,RHO  0.700000E+01 -0.796419E+01 -0.840156E+02 -0.127663E+03 -0.300692E+02 -0.538837E+02  0.270066E-14


 DIRAC CALCULATION
1                    NITROGEN ATOM 1s CORE RELATIVISTIC, Point Nuc, A and c from libtc


 EXCHANGE COEFFICIENT=  0.7000000           TAIL CORRECTION=  0.           NUCLEAR RADIUS=  0.000E+00
0                       ORBITAL    N    L    J     ELECTRONS     EIGENVALUE                DELTA OF EIGENV.

                          1S1/2  1.0  0.0  0.5     2.000       -0.1403720E+02                 0.4993583E-04
                          2S1/2  2.0  0.0  0.5     2.000       -0.6456810E+00                 0.6544571E-05
                          2P1/2  2.0  1.0  0.5     2.000       -0.2347008E+00                 0.5687228E-05
                          2P3/2  2.0  1.0  1.5     1.000       -0.2339893E+00                 0.5679256E-05


                                        NUCLEAR CHARGE=    7.000000
                            INTEGRAL OF CHARGE DENSITY=    7.000000
                           SUM OF THE ORBITAL ENERGIES=    -30.0692
                                          TOTAL ENERGY=    -53.8837
                                        KINETIC ENERGY=     53.9465
                             NUCLEAR ATTRACTION ENERGY=   -127.6627
                             ELECTRON REPULSION ENERGY=     25.8056
                                       EXCHANGE ENERGY=     -5.9731

 *******************************************************************************

                             D I R A C   E X I T
 NORMAL TERMINATION



 =================
 Timing Statistics
 =================
  
 Total Used :                     CPU=        0.11      System=        0.01     Elapsed=        0.18

 Calls  Section                     ( Mean, Percentage )
 ---------------------------------------------------------------------------------------------------
     2  ><      ................      0.00    0.00             0.00    0.04             0.00    0.00
     1  EXIT PROCEDURE .........      0.11  100.00             0.01   99.96             0.18  100.00


 Currently Open Files (EXIT00)
 ====================

 Unit    Access Format  Status   Type       Ident (file)
 -------------------------------------------------------
   3      SEQ    FORM   TRANSP  NORMAL      LOGFILE
                                          ( logfile )
 
Create N   file=DZ-N.1s
XC
 GGA PBE
End
relativistic ZORA
Corepotentials t12.rel
End

 *******************************************************************************
 *                                                                             *
 *  -------------------------------------                                      *
 *   Amsterdam Density Functional  (ADF)         2019                          *
 *  -------------------------------------                                      *
 *                                               r74351 2019-04-25             *
 *                                                                             *
 *                                                                             *
 *                              =================                              *
 *                              |               |                              *
 *                              |     A D F     |                              *
 *                              |               |                              *
 *                              =================                              *
 *                                                                             *
 *                                                                             *
 *   Online information and documentation:  https://www.scm.com/support/       *
 *   E-mail:  support@scm.com   info@scm.com                                   *
 *                                                                             *
 *   Scientific publications using ADF results must be properly referenced     *
 *   See the User Manuals (or the web site) for recommended citations          *
 *   The terms and conditions of the End User License Agreement apply to       *
 *   the use of ADF, https://www.scm.com/license-terms/                        *
 *                                                                             *
 **********************  x86_64_linux_intel / intelmpi  ************************
 
 Licensed to: Dr. Emilie Guidez / UC Denver / Denver / CO / USA
 SCM User ID: u20218
  
 ADF 2019  RunTime: Feb04-2021 20:27:23  Nodes: 1  Procs: 1

 Temporary files are created in /home/chemistry/limjae/scr/kid_0.923211300

 Nitrogen (DZ, 1s frozen)



 ===========================
 A T T A C H E D   F I L E S
 ===========================
  
 CREATE - Data File:    DZ-N.1s
                        Nitrogen (DZ, 1s frozen)
 Core Potentials:
         file : t12.rel



 ===============================
 M O D E L   P A R A M E T E R S
 ===============================
  
 DENSITY FUNCTIONAL POTENTIAL (scf)
    LDA:                               PW92                                    == Not Default ==
    Gradient Corrections:              PBEc PBEx                               == Not Default ==

 SPIN  (restricted / unrestr.)
    Molecule:                          Restricted                               

 OTHER ASPECTS
    Relativistic Corrections:          scalar (ZORA,MAPA)                      == Not Default ==

    Nuclear Charge Density Model:      Point Charge Nuclei                      
    Core Treatment:                    Frozen Orbital(s)                        

    Hyperfine or Zeeman Interaction:   ---                                      



 =====================================
 S Y M M E T R Y ,   E L E C T R O N S
 =====================================
  
 Symmetry: ATOM

 Irreducible Representations, including subspecies
 -------------------------------------------------
 S
 P:x  P:y  P:z
 D:z2  D:x2-y2  D:xy  D:xz  D:yz
 F:z3  F:z  F:xyz  F:z2x  F:z2y  F:x  F:y


 Configuration of Valence Electrons
 ==================================

          Occupation Numbers
          -------------------------------------------------
 S        2
 P        3
 D        0
 F        0
          -------------------------------------------------

 Total:   5

 Net Charge: 0 (Nuclei minus Electrons)

 Preset values for MO occupations will be applied through SCF cycle no. 1000000
 Thereafter, the program will assign electrons to MOs that are spatially
 similar to the occupied MOs in a "reference" cycle ("KeepOrbitals").
 The reference cycle is always the PREVIOUS cycle: it will evolve with
 the SCF procedure.



 ================================
 (Slater-type)  F U N C T I O N S  ***  (Basis and Fit)  ***
 ================================
  

 Atom Type    1  (N)
 ==============

 Valence Basis Sets:   5
 -----------------------
   1 S    6.380000
   2 S    1.460000
   2 S    2.380000
   2 P    1.120000
   2 P    2.580000

 Frozen Core Shells
 ------------------
    S:  1


 BAS: List of all Elementary Cartesian Basis Functions
 =====================================================

 The numbering in the list below (to the right of the function characteristics) is referred
 to in print-outs of MO eigenvectors and Mulliken populations in the BAS representation
 (as contrasted to the SFO representation).

 Notes:
 1. The functions are characterized by a polynomial prefactor (powers of x,y,z and r) and
    an exponential decay factor alpha.
 2. Since the basis sets are specific for an atom TYPE, the individual functions occur on
    all atoms of that type.
 3. The word 'Core' in the left margin signals that it is a Core Function (CF) : not a
    degree of freedom in the valence set, but only used to ensure orthogonalization of
    the other valence basis functions on the frozen Core Orbitals.


 (power of) X  Y  Z  R     Alpha  on Atom
            ==========     =====     ==========

 N                                    1
                                  ---------------------------------------------------------------------------
    Core    0  0  0  0     6.380      1
            0  0  0  1     1.460      2
            0  0  0  1     2.380      3
            1  0  0  0     1.120      4
            0  1  0  0     1.120      5
            0  0  1  0     1.120      6
            1  0  0  0     2.580      7
            0  1  0  0     2.580      8
            0  0  1  0     2.580      9

 Total number of charge fitting functions (nprimf)        82
 Total number of Cartesian basis functions (naos)          9
 Total number of Cartesian core functions  (ncos)          1



 BAS: List of all Elementary Cartesian Basis Functions
 =====================================================

 The numbering in the list below (to the right of the function characteristics) is referred
 to in print-outs of MO eigenvectors and Mulliken populations in the BAS representation
 (as contrasted to the SFO representation).

 Notes:
 1. The functions are characterized by a polynomial prefactor (powers of x,y,z and r) and
    an exponential decay factor alpha.
 2. Since the basis sets are specific for an atom TYPE, the individual functions occur on
    all atoms of that type.
 3. The word 'Core' in the left margin signals that it is a Core Function (CF) : not a
    degree of freedom in the valence set, but only used to ensure orthogonalization of
    the other valence basis functions on the frozen Core Orbitals.


 (power of) X  Y  Z  R     Alpha  on Atom
            ==========     =====     ==========

 N                                    1
                                  ---------------------------------------------------------------------------
    Core    0  0  0  0     6.380      1
            0  0  0  1     1.460      2
            0  0  0  1     2.380      3
            1  0  0  0     1.120      4
            0  1  0  0     1.120      5
            0  0  1  0     1.120      6
            1  0  0  0     2.580      7
            0  1  0  0     2.580      8
            0  0  1  0     2.580      9
1
 ***************************************************************************************************



                                              ***********************
                                              *  T E C H N I C A L  *
                                              ***********************
  



 =============================================================
 P A R A L L E L I Z A T I O N  and  V E C T O R I Z A T I O N
 =============================================================
  
 Nr of parallel processes:                                1
 Maximum vector length in NumInt loops:                 128



 =====================
 S C F   U P D A T E S
 =====================
  
 Max. nr. of cycles:                               300
 Convergence criterion:                              0.0000000100
   secondary criterion:                              0.0000000100

 Mix parameter (when DIIS does not apply):           0.2000000000
 Special mix parameter for the first cycle:          1.0000000000
 Mixed ADIIS+SDIIS will be used                  
    Max number of expansion vectors:                10
    Pure ADIIS when Max([F,P]) is above              0.1000000000
    Pure SDIIS when Max([F,P]) is below              0.0010000000
 Automatic ElectronSmearing (in case of problematic SCF convergence) disabled



 =================
 P R E C I S I O N  ***  (General: NumInt, NeglectFunctionTails, ...)  ***
 =================
  

 NumInt:           Target precision:                12.0000000000
 -------           Initial precision:               10.0000000000
                   Min. precision (optimization):   10.0000000000

 Neglect Functions:          Basis functions:        0.1000000000E-13
 ------------------          Fit functions:          0.1000000000E-13



 ===========================
 L I N E A R   S C A L I N G
 ===========================
  

 Cut-off radii density fit:                        0.1000000000E-97
 Overlap cut-off criterion AO matrix elements:     0.1000000000E-97
 Cut-offs for Coulomb potential and fitted density:0.1000000000E-97
 Cut-off criterion for Coulomb multipole terms:    0.1000000000E-97
 Progressive Convergence parameter:                 0.000000000    
1
 ***************************************************************************************************



                                            ***************************
                                            *  C O M P U T A T I O N  *
                                            ***************************
  

 Number of elements of the density matrix on this node (used, total):        45        45



 ===========================================
 Numerical Integration : Fuzzy Cells (Becke)
 ===========================================
  
 Becke grid quality: VERYGOOD       
  
 Lebedev angular grid order:             min:  13 max:  41
 Nr. of radial points:                   min:  68 max:  68

 Total nr. of points:         68
 Nr. of blocks:                1
 Block length:                68
 Nr. of dummy points:          0


 Test of Precision of the Numerical Integration Grid
 ===================================================

 Integral of the Total Core Density:                   2.00000004779027
 Relative Error:                                       2.390E-08



 ========================
 Density Fitting (zlmFit)
 ========================
  
 ZlmFit Fit Quality: VERYGOOD       
  
 Max L-expansion:                        min:   0 max:   0
 Nr. of radial interpolation points:     min: 150 max: 150



 =====
 S C F  ***  ScaSCF  ***
 =====
  

 CYCLE    1
 SCF Error: norm([F,P])=      0.000000000000, max([F,P])=      0.000000000000
 orbitals (Q,E):
 ---------------
 S :1...2            ( 2.00    -3.8308)  ( 0.00    -1.5342)
 P :1...2            ( 3.00    -3.5256)  ( 0.00    -1.4645)

 CYCLE    2
 SCF Error: norm([F,P])=      1.549673975551, max([F,P])=      1.258101921759
 orbitals (Q,E):
 ---------------
 S :1...2            ( 2.00    -0.1903)  ( 0.00     1.2168)
 P :1...2            ( 3.00     0.1546)  ( 0.00     1.2047)

 CYCLE    3
  SDIIS (wt  0.000):  0.4674  0.5326
 A-DIIS (wt  1.000):  0.3240  0.6760
  DIIS coefficients:  0.3240  0.6760
 SCF Error: norm([F,P])=      1.360249054281, max([F,P])=      1.048050156299
 orbitals (Q,E):
 ---------------
 S :1...2            ( 2.00    -0.8381)  ( 0.00     0.5861)
 P :1...2            ( 3.00    -0.4109)  ( 0.00     0.4817)

 CYCLE    4
  SDIIS (wt  0.000):  0.1928  0.8072
 A-DIIS (wt  1.000):  0.0000  1.0000
  DIIS coefficients:  0.0000  1.0000
 SCF Error: norm([F,P])=      0.325925918927, max([F,P])=      0.228226698732
 orbitals (Q,E):
 ---------------
 S :1...2            ( 2.00    -0.5797)  ( 0.00     0.7788)
 P :1...2            ( 3.00    -0.1643)  ( 0.00     0.6846)

 CYCLE    5
  SDIIS (wt  0.000):  0.4892  0.5108
 A-DIIS (wt  1.000):  0.4642  0.5358
  DIIS coefficients:  0.4642  0.5358
 SCF Error: norm([F,P])=      0.312119029167, max([F,P])=      0.221835145933
 orbitals (Q,E):
 ---------------
 S :1...2            ( 2.00    -0.6950)  ( 0.00     0.6844)
 P :1...2            ( 3.00    -0.2715)  ( 0.00     0.5814)

 CYCLE    6
  SDIIS (wt  0.928):  0.0359  0.9641
 A-DIIS (wt  0.072):  0.0000  1.0000
  DIIS coefficients:  0.0333  0.9667
 SCF Error: norm([F,P])=      0.011627935283, max([F,P])=      0.008114454643
 orbitals (Q,E):
 ---------------
 S :1...2            ( 2.00    -0.6895)  ( 0.00     0.6886)
 P :1...2            ( 3.00    -0.2663)  ( 0.00     0.5858)

 CYCLE    7
  SDIIS (wt  1.000):  0.0715  0.9285
  DIIS coefficients:  0.0715  0.9285
 SCF Error: norm([F,P])=      0.000895557034, max([F,P])=      0.000636506786
 orbitals (Q,E):
 ---------------
 S :1...2            ( 2.00    -0.6898)  ( 0.00     0.6884)
 P :1...2            ( 3.00    -0.2666)  ( 0.00     0.5855)

 CYCLE    8
  SDIIS (wt  1.000): -0.0084  1.0084
  DIIS coefficients: -0.0084  1.0084
 SCF Error: norm([F,P])=      0.000007431471, max([F,P])=      0.000005244833
 orbitals (Q,E):
 ---------------
 S :1...2            ( 2.00    -0.6898)  ( 0.00     0.6884)
 P :1...2            ( 3.00    -0.2666)  ( 0.00     0.5855)

 CYCLE    9
  SDIIS (wt  1.000):  0.0035  0.9965
  DIIS coefficients:  0.0035  0.9965
 SCF Error: norm([F,P])=      0.000000026230, max([F,P])=      0.000000018481
 orbitals (Q,E):
 ---------------
 S :1...2            ( 2.00    -0.6898)  ( 0.00     0.6884)
 P :1...2            ( 3.00    -0.2666)  ( 0.00     0.5855)

 CYCLE   10
  SDIIS (wt  1.000):  0.0008  0.9992
  DIIS coefficients:  0.0008  0.9992
 SCF Error: norm([F,P])=      0.000000000021, max([F,P])=      0.000000000015
 orbitals (Q,E):
 ---------------
 S :1...2            ( 2.00    -0.6898)  ( 0.00     0.6884)
 P :1...2            ( 3.00    -0.2666)  ( 0.00     0.5855)

 SCF CONVERGED

 CYCLE   11
1
 ***************************************************************************************************



                                                *******************
                                                *  R E S U L T S  *
                                                *******************
  
 *** Using FIT density in Focky
  SDIIS (wt  1.000):  0.0005  0.9995
  DIIS coefficients:  0.0005  0.9995
 SCF Error: norm([F,P])=      0.000000000000, max([F,P])=      0.000000000000

 Scaled ZORA Orbital Energies, per Irrep and Spin:
 =================================================
                        Occup              E (au)              E (eV)       Diff (eV) with prev. cycle
                        -----      --------------------        ------       --------------------------
 S
               1        2.000     -0.68979333234436E+00       -18.770               1.57E-13
               2        0.000      0.68835668824347E+00        18.731
 P
               1        3.000     -0.26655778219350E+00        -7.253               1.57E-13
               2        0.000      0.58549619457877E+00        15.932


 Partially Occupied:
               1 P                -0.26655778219350E+00
  
 HOMO :        1 S                -0.68979333234436E+00
 LUMO :        2 P                 0.58549619457877E+00
  


 Orbital Energies, all Irreps
 ========================================

 Irrep        no.  (spin)   Occup              E (au)                E (eV)
 ---------------------------------------------------------------------------
 S             1             2.00       -0.68979333234436E+00       -18.7702
 P             1             3.00       -0.26655778219350E+00        -7.2534
 P             2             0.00        0.58549619457877E+00        15.9322
 S             2             0.00        0.68835668824347E+00        18.7311


 Scaled ZORA Orbital Energies of the Core Orbitals:
 ==================================================

 (Note that the atoms are grouped by atomtype, see the labels, and may hence NOT be in input order)

 AtomType  Orbital  Atom                   E (au)                        E (eV)
 --------  -------  ----           --------------------        ----------------
 N           1S        1          -0.14166659762581E+02                -385.494



 =======================================
 M U L L I K E N   P O P U L A T I O N S
 =======================================
  
 The survey below gives for each atom:
 a) the total charge (Z minus electrons)
 b) the net spin polarization (nr of electrons spin-A minus spin-B)
 c) for each spin the atomic electron valence density (integrated) per L-value.

 Atom              Charge    Spin density          S         P         D         F
 ----              ------    ------------       ------    ------    ------    ------
 1 N              -0.0000                       2.0000    3.0000    0.0000    0.0000

 Populations of individual BAS functions
 ----------------------------------------
 1 N            0.0005  0.8702  1.1293  0.4947  0.4947  0.4947  0.5053  0.5053  0.5053

 Gross Charges per Atom (Z minus electrons)
 ==========================================
            -0.0000
 Net Total: -0.00000000



 =======================================================================
 Electrostatic potential at the Nuclei due to electrons and other nuclei
 =======================================================================
  
         Atom                  Potential
         ----                  ---------
     1)   N                  18.25311827
 
 
 ========================
 No memory problems found
 ========================
 
 Maximum number of active allocate calls:         319
 
 *******************************************************************************

                             A D F   E X I T
 NORMAL TERMINATION



 =================
 Timing Statistics
 =================
  
 Total Used :                     CPU=        0.64      System=        0.07     Elapsed=        0.95

 Calls  Section                     ( Mean, Percentage )
 ---------------------------------------------------------------------------------------------------
     3  ><      ................      0.00    1.38             0.00    0.18             0.00    1.30
     1  INIT    ................      0.09   14.47             0.01   12.79             0.11   11.94
     1  GEOMET  ................      0.03    4.42             0.01   16.03             0.06    6.83
     1  INPUTA  ................      0.00    0.72             0.00    3.07             0.01    1.10
     1  MAINSY  ................      0.02    3.60             0.01    8.57             0.05    5.03
     1  SYMFIT  ................      0.00    0.29             0.00    0.44             0.00    0.28
     1  CORORT  ................      0.00    0.31             0.00    0.00             0.00    0.46
     1  SYMORB  ................      0.00    0.30             0.00    0.00             0.00    0.30
     1  CLSMAT  ................      0.01    1.31             0.00    3.25             0.02    1.76
     1  ORTHON  ................      0.01    1.45             0.00    1.73             0.01    1.42
     1  GENPT   ................      0.01    2.15             0.01    7.52             0.03    3.14
     1  PTBAS   ................      0.01    1.24             0.00    3.35             0.02    1.79
    11  FOCKY   ................      0.03   51.74             0.00   22.56             0.04   43.25
    11  FOCKTR  ................      0.00    2.10             0.00    0.08             0.00    2.76
    11  SDIIS   ................      0.00    7.17             0.00    7.23             0.01   10.03
     1  COREPS  ................      0.02    3.22             0.00    7.02             0.03    3.42
     1  POPAN   ................      0.00    0.77             0.00    4.09             0.01    1.42
     1  DEBYE   ................      0.00    0.61             0.00    0.49             0.01    0.72
     1  EXIT PROCEDURE .........      0.02    2.75             0.00    1.60             0.03    3.05


 Currently Open Files (EXIT00)
 ====================

 Unit    Access Format  Status   Type       Ident (file)
 -------------------------------------------------------
   3      SEQ    FORM   TRANSP  NORMAL      LOGFILE
                                          ( logfile )

 ***************************************************************************************************
 (LOGFILE)
 <Feb04-2021> <20:27:22>  DIRAC 2019  RunTime: Feb04-2021 20:27:22  Nodes: 1  Procs: 1
 <Feb04-2021> <20:27:22>  NORMAL TERMINATION
 <Feb04-2021> <20:27:22>  END
 <Feb04-2021> <20:27:22>  ADF 2019  RunTime: Feb04-2021 20:27:22  Nodes: 1  Procs: 1
 <Feb04-2021> <20:27:22>  Hydrogen (DZ)
 <Feb04-2021> <20:27:22>  RunType   : CREATE
 <Feb04-2021> <20:27:22>  Net Charge: 0 (Nuclei minus Electrons)
 <Feb04-2021> <20:27:22>  Symmetry  : ATOM
  Coordinates
    Atom         X           Y           Z   (Angstrom)
    1.H         0.000000    0.000000    0.000000
 <Feb04-2021> <20:27:22>  >>>> CORORT
 <Feb04-2021> <20:27:22>  >>>> CLSMAT
 <Feb04-2021> <20:27:22>  >>>> ORTHON
 <Feb04-2021> <20:27:22>  >>>> GENPT
 <Feb04-2021> <20:27:22>  Block Length=  64
 <Feb04-2021> <20:27:22>  >>>> PTBAS
 <Feb04-2021> <20:27:22>  >>>> CYCLE
 <Feb04-2021> <20:27:22>              |Error|         MaxErr       Wt(A-DIIS)
 <Feb04-2021> <20:27:22>      1      0.00000000      0.00000000
 <Feb04-2021> <20:27:22>      2      0.03300193      0.03300193
 <Feb04-2021> <20:27:22>      3      0.00595445      0.00595445    100.0
 <Feb04-2021> <20:27:22>      4      0.00102040      0.00102040      0.0
 <Feb04-2021> <20:27:22>      5      0.00000144      0.00000144      0.0
 <Feb04-2021> <20:27:22>      6      0.00000000      0.00000000      0.0
 <Feb04-2021> <20:27:22>  SCF converged
 <Feb04-2021> <20:27:22>      7      0.00000000      0.00000000      0.0
 <Feb04-2021> <20:27:23>  >>>> POPAN
 <Feb04-2021> <20:27:23>  >>>> DEBYE
 <Feb04-2021> <20:27:23>  NORMAL TERMINATION
 <Feb04-2021> <20:27:23>  END
 <Feb04-2021> <20:27:23>  DIRAC 2019  RunTime: Feb04-2021 20:27:23  Nodes: 1  Procs: 1
 <Feb04-2021> <20:27:23>  NORMAL TERMINATION
 <Feb04-2021> <20:27:23>  END
 <Feb04-2021> <20:27:23>  ADF 2019  RunTime: Feb04-2021 20:27:23  Nodes: 1  Procs: 1
 <Feb04-2021> <20:27:23>  Nitrogen (DZ, 1s frozen)
 <Feb04-2021> <20:27:23>  RunType   : CREATE
 <Feb04-2021> <20:27:23>  Net Charge: 0 (Nuclei minus Electrons)
 <Feb04-2021> <20:27:23>  Symmetry  : ATOM
  Coordinates
    Atom         X           Y           Z   (Angstrom)
    1.N         0.000000    0.000000    0.000000
 <Feb04-2021> <20:27:23>  >>>> CORORT
 <Feb04-2021> <20:27:23>  >>>> CLSMAT
 <Feb04-2021> <20:27:23>  >>>> ORTHON
 <Feb04-2021> <20:27:23>  >>>> GENPT
 <Feb04-2021> <20:27:23>  Block Length=  68
 <Feb04-2021> <20:27:23>  >>>> PTBAS
 <Feb04-2021> <20:27:23>  >>>> CYCLE
 <Feb04-2021> <20:27:23>              |Error|         MaxErr       Wt(A-DIIS)
 <Feb04-2021> <20:27:23>      1      0.00000000      0.00000000
 <Feb04-2021> <20:27:24>      2      1.54967398      1.25810192
 <Feb04-2021> <20:27:24>      3      1.36024905      1.04805016    100.0
 <Feb04-2021> <20:27:24>      4      0.32592592      0.22822670    100.0
 <Feb04-2021> <20:27:24>      5      0.31211903      0.22183515    100.0
 <Feb04-2021> <20:27:24>      6      0.01162794      0.00811445      7.2
 <Feb04-2021> <20:27:24>      7      0.00089556      0.00063651      0.0
 <Feb04-2021> <20:27:24>      8      0.00000743      0.00000524      0.0
 <Feb04-2021> <20:27:24>      9      0.00000003      0.00000002      0.0
 <Feb04-2021> <20:27:24>     10      0.00000000      0.00000000      0.0
 <Feb04-2021> <20:27:24>  SCF converged
 <Feb04-2021> <20:27:24>     11      0.00000000      0.00000000      0.0
 <Feb04-2021> <20:27:24>  >>>> POPAN
 <Feb04-2021> <20:27:24>  >>>> DEBYE
 <Feb04-2021> <20:27:24>  NORMAL TERMINATION
 <Feb04-2021> <20:27:24>  END

 *******************************************************************************
 *                                                                             *
 *  -------------------------------------                                      *
 *   Amsterdam Density Functional  (ADF)         2019                          *
 *  -------------------------------------                                      *
 *                                               r74351 2019-04-25             *
 *                                                                             *
 *                                                                             *
 *                            =====================                            *
 *                            |                   |                            *
 *                            |     D I R A C     |                            *
 *                            |                   |                            *
 *                            =====================                            *
 *                                                                             *
 *                                                                             *
 *   Online information and documentation:  https://www.scm.com/support/       *
 *   E-mail:  support@scm.com   info@scm.com                                   *
 *                                                                             *
 *   Scientific publications using ADF results must be properly referenced     *
 *   See the User Manuals (or the web site) for recommended citations          *
 *   The terms and conditions of the End User License Agreement apply to       *
 *   the use of ADF, https://www.scm.com/license-terms/                        *
 *                                                                             *
 **********************  x86_64_linux_intel / intelmpi  ************************
 
 Licensed to: Dr. Emilie Guidez / UC Denver / Denver / CO / USA
 SCM User ID: u20218
  
 DIRAC 2019  RunTime: Feb04-2021 20:27:24  Nodes: 1  Procs: 1

 Temporary files are created in /home/chemistry/limjae/scr/kid_0.181670560

1
 GOLD ATOM 4d CORE RELATIVISTIC, Point Nuc, A and c from libt
 N J RN H ZN XION ANUC CLIGHT
 5000   22100.00000000197.36710137 79.00000000  0.00000000  196.966551  0.1370360E+03
  PH   PHI     EPS        DEL        DELRVR
  0.30  0.30     2500.00  0.00001000  0.00001000
 IDIRC  NC1  NDEBU NPRIN  IPUN IRCOR IWCOR
   1   300     0     0     0     0    14
   XALPHA      XLATTER      RNUC
  0.70000000  0.00000000  0.00000000 Point Charge
   XN   XL   XJ      XE          XZ      XDELL
  1.0  0.0  0.5   -2600.000       2.000     0.00000
  2.0  0.0  0.5    -425.000       2.000     0.00000
  2.0  1.0  0.5    -425.000       2.000     0.00000
  2.0  1.0  1.5    -425.000       4.000     0.00000
  3.0  0.0  0.5    -100.000       2.000     0.00000
  3.0  1.0  0.5    -100.000       2.000     0.00000
  3.0  1.0  1.5    -100.000       4.000     0.00000
  3.0  2.0  1.5     -80.000       4.000     0.00000
  3.0  2.0  2.5     -80.000       6.000     0.00000
  4.0  0.0  0.5     -22.000       2.000     0.00000
  4.0  1.0  0.5     -20.000       2.000     0.00000
  4.0  1.0  1.5     -20.000       4.000     0.00000
  4.0  2.0  1.5     -11.000       4.000     0.00000
  4.0  2.0  2.5     -11.000       6.000     0.00000
  4.0  3.0  2.5      -1.000       6.000     0.00000
  4.0  3.0  3.5      -1.000       8.000     0.00000
  5.0  0.0  0.5      -3.000       2.000     0.00000
  5.0  1.0  0.5      -2.200       2.000     0.00000
  5.0  1.0  1.5      -2.200       4.000     0.00000
  5.0  2.0  1.5      -0.500       4.000     0.00000
  5.0  2.0  2.5      -0.500       6.000     0.00000
  6.0  0.0  0.5      -0.200       1.000     0.00000
 ICORP=  0  NPCL=  0  DEMP=0.00  PEPS=0.000000
 R(1)=  0.1000000E-08 D=  0.1005080E+01 RNUC=  0.0000000E+00
 converged at cycle   60  DENSITY AVERAGING    0.0786
  MAXIMUM ERROR IN R.V(R) IS   0.38523360E-05
 Q,EY,EV,EZ,ESUM,ETOT,RHO  0.790000E+02 -0.485545E+03 -0.336404E+05 -0.479937E+05 -0.117486E+05 -0.190466E+05  0.196298E-08


 DIRAC CALCULATION
1                    GOLD ATOM 4d CORE RELATIVISTIC, Point Nuc, A and c from libtc


 EXCHANGE COEFFICIENT=  0.7000000           TAIL CORRECTION=  0.           NUCLEAR RADIUS=  0.000E+00
0                       ORBITAL    N    L    J     ELECTRONS     EIGENVALUE                DELTA OF EIGENV.

                          1S1/2  1.0  0.0  0.5     2.000       -0.2963119E+04                 0.3731460E-04
                          2S1/2  2.0  0.0  0.5     2.000       -0.5226069E+03                 0.3102938E-04
                          2P1/2  2.0  1.0  0.5     2.000       -0.5013071E+03                 0.3249986E-04
                          2P3/2  2.0  1.0  1.5     4.000       -0.4338328E+03                 0.3150316E-04
                          3S1/2  3.0  0.0  0.5     2.000       -0.1233461E+03                 0.2017137E-04
                          3P1/2  3.0  1.0  0.5     2.000       -0.1137481E+03                 0.2099254E-04
                          3P3/2  3.0  1.0  1.5     4.000       -0.9885554E+02                 0.1984570E-04
                          3D3/2  3.0  2.0  1.5     4.000       -0.8287610E+02                 0.2174809E-04
                          3D5/2  3.0  2.0  2.5     6.000       -0.7967162E+02                 0.2135379E-04
                          4S1/2  4.0  0.0  0.5     2.000       -0.2673972E+02                 0.1054160E-04
                          4P1/2  4.0  1.0  0.5     2.000       -0.2264484E+02                 0.1056903E-04
                          4P3/2  4.0  1.0  1.5     4.000       -0.1906321E+02                 0.9669504E-05
                          4D3/2  4.0  2.0  1.5     4.000       -0.1235180E+02                 0.9615342E-05
                          4D5/2  4.0  2.0  2.5     6.000       -0.1168427E+02                 0.9341815E-05
                          4F5/2  4.0  3.0  2.5     6.000       -0.3062221E+01                 0.8653601E-05
                          4F7/2  4.0  3.0  3.5     8.000       -0.2921300E+01                 0.8510675E-05
                          5S1/2  5.0  0.0  0.5     2.000       -0.3963776E+01                 0.3355907E-05
                          5P1/2  5.0  1.0  0.5     2.000       -0.2629660E+01                 0.2984355E-05
                          5P3/2  5.0  1.0  1.5     4.000       -0.2015087E+01                 0.2530381E-05
                          5D3/2  5.0  2.0  1.5     4.000       -0.2662248E+00                 0.1434098E-05
                          5D5/2  5.0  2.0  2.5     6.000       -0.2094938E+00                 0.1305568E-05
                          6S1/2  6.0  0.0  0.5     1.000       -0.1940684E+00                 0.3484321E-06


                                        NUCLEAR CHARGE=   79.000000
                            INTEGRAL OF CHARGE DENSITY=   79.000000
                           SUM OF THE ORBITAL ENERGIES= -11748.5839
                                          TOTAL ENERGY= -19046.6065
                                        KINETIC ENERGY=  21891.8398
                             NUCLEAR ATTRACTION ENERGY= -47993.6963
                             ELECTRON REPULSION ENERGY=   7419.4090
                                       EXCHANGE ENERGY=   -364.1591

 *******************************************************************************

                             D I R A C   E X I T
 NORMAL TERMINATION



 =================
 Timing Statistics
 =================
  
 Total Used :                     CPU=        0.60      System=        0.02     Elapsed=        0.75

 Calls  Section                     ( Mean, Percentage )
 ---------------------------------------------------------------------------------------------------
     2  ><      ................      0.00    0.00             0.00    0.03             0.00    0.00
     1  EXIT PROCEDURE .........      0.60  100.00             0.02   99.97             0.75  100.00


 Currently Open Files (EXIT00)
 ====================

 Unit    Access Format  Status   Type       Ident (file)
 -------------------------------------------------------
   3      SEQ    FORM   TRANSP  NORMAL      LOGFILE
                                          ( logfile )
 
Create Au   file=DZ-Au.4d
XC
 GGA PBE
End
relativistic ZORA
Corepotentials t12.rel
End

 *******************************************************************************
 *                                                                             *
 *  -------------------------------------                                      *
 *   Amsterdam Density Functional  (ADF)         2019                          *
 *  -------------------------------------                                      *
 *                                               r74351 2019-04-25             *
 *                                                                             *
 *                                                                             *
 *                              =================                              *
 *                              |               |                              *
 *                              |     A D F     |                              *
 *                              |               |                              *
 *                              =================                              *
 *                                                                             *
 *                                                                             *
 *   Online information and documentation:  https://www.scm.com/support/       *
 *   E-mail:  support@scm.com   info@scm.com                                   *
 *                                                                             *
 *   Scientific publications using ADF results must be properly referenced     *
 *   See the User Manuals (or the web site) for recommended citations          *
 *   The terms and conditions of the End User License Agreement apply to       *
 *   the use of ADF, https://www.scm.com/license-terms/                        *
 *                                                                             *
 **********************  x86_64_linux_intel / intelmpi  ************************
 
 Licensed to: Dr. Emilie Guidez / UC Denver / Denver / CO / USA
 SCM User ID: u20218
  
 ADF 2019  RunTime: Feb04-2021 20:27:25  Nodes: 1  Procs: 1

 Temporary files are created in /home/chemistry/limjae/scr/kid_0.404473719

 Gold (DZ, 4d frozen)



 ===========================
 A T T A C H E D   F I L E S
 ===========================
  
 CREATE - Data File:    DZ-Au.4d
                        Gold (DZ, 4d frozen)
 Core Potentials:
         file : t12.rel



 ===============================
 M O D E L   P A R A M E T E R S
 ===============================
  
 DENSITY FUNCTIONAL POTENTIAL (scf)
    LDA:                               PW92                                    == Not Default ==
    Gradient Corrections:              PBEc PBEx                               == Not Default ==

 SPIN  (restricted / unrestr.)
    Molecule:                          Restricted                               

 OTHER ASPECTS
    Relativistic Corrections:          scalar (ZORA,MAPA)                      == Not Default ==

    Nuclear Charge Density Model:      Point Charge Nuclei                      
    Core Treatment:                    Frozen Orbital(s)                        

    Hyperfine or Zeeman Interaction:   ---                                      



 =====================================
 S Y M M E T R Y ,   E L E C T R O N S
 =====================================
  
 Symmetry: ATOM

 Irreducible Representations, including subspecies
 -------------------------------------------------
 S
 P:x  P:y  P:z
 D:z2  D:x2-y2  D:xy  D:xz  D:yz
 F:z3  F:z  F:xyz  F:z2x  F:z2y  F:x  F:y


 Configuration of Valence Electrons
 ==================================

          Occupation Numbers
          -------------------------------------------------
 S        2 1
 P        6
 D        10
 F        14
          -------------------------------------------------

 Total:   33

 Net Charge: 0 (Nuclei minus Electrons)

 Preset values for MO occupations will be applied through SCF cycle no. 1000000
 Thereafter, the program will assign electrons to MOs that are spatially
 similar to the occupied MOs in a "reference" cycle ("KeepOrbitals").
 The reference cycle is always the PREVIOUS cycle: it will evolve with
 the SCF procedure.



 ================================
 (Slater-type)  F U N C T I O N S  ***  (Basis and Fit)  ***
 ================================
  

 Atom Type    1  (Au)
 ==============

 Valence Basis Sets:  21
 -----------------------
   1 S   57.000000
   2 S   36.650000
   3 S   21.050000
   4 S   12.400000
   2 P   39.650000
   3 P   17.950000
   4 P   12.550000
   3 D   22.100000
   4 D   11.200000
   5 S    7.000000
   5 S    4.600000
   6 S    2.850000
   6 S    1.510000
   5 P    6.000000
   5 P    3.700000
   5 D    4.350000
   5 D    2.000000
   4 F   16.150000
   4 F    8.900000
   4 F    4.900000
   6 P    1.950000

 Frozen Core Shells
 ------------------
    S:  4
    P:  3
    D:  2


 BAS: List of all Elementary Cartesian Basis Functions
 =====================================================

 The numbering in the list below (to the right of the function characteristics) is referred
 to in print-outs of MO eigenvectors and Mulliken populations in the BAS representation
 (as contrasted to the SFO representation).

 Notes:
 1. The functions are characterized by a polynomial prefactor (powers of x,y,z and r) and
    an exponential decay factor alpha.
 2. Since the basis sets are specific for an atom TYPE, the individual functions occur on
    all atoms of that type.
 3. The word 'Core' in the left margin signals that it is a Core Function (CF) : not a
    degree of freedom in the valence set, but only used to ensure orthogonalization of
    the other valence basis functions on the frozen Core Orbitals.


 (power of) X  Y  Z  R     Alpha  on Atom
            ==========     =====     ==========

 Au                                   1
                                  ---------------------------------------------------------------------------
    Core    0  0  0  0    57.000      1
    Core    0  0  0  1    36.650      2
    Core    0  0  0  2    21.050      3
    Core    0  0  0  3    12.400      4
    Core    1  0  0  0    39.650      5
    Core    0  1  0  0    39.650      6
    Core    0  0  1  0    39.650      7
    Core    1  0  0  1    17.950      8
    Core    0  1  0  1    17.950      9
    Core    0  0  1  1    17.950     10
    Core    1  0  0  2    12.550     11
    Core    0  1  0  2    12.550     12
    Core    0  0  1  2    12.550     13
    Core    2  0  0  0    22.100     14
    Core    1  1  0  0    22.100     15
    Core    1  0  1  0    22.100     16
    Core    0  2  0  0    22.100     17
    Core    0  1  1  0    22.100     18
    Core    0  0  2  0    22.100     19
    Core    2  0  0  1    11.200     20
    Core    1  1  0  1    11.200     21
    Core    1  0  1  1    11.200     22
    Core    0  2  0  1    11.200     23
    Core    0  1  1  1    11.200     24
    Core    0  0  2  1    11.200     25
            0  0  0  4     7.000     26
            0  0  0  4     4.600     27
            0  0  0  5     2.850     28
            0  0  0  5     1.510     29
            1  0  0  3     6.000     30
            0  1  0  3     6.000     31
            0  0  1  3     6.000     32
            1  0  0  3     3.700     33
            0  1  0  3     3.700     34
            0  0  1  3     3.700     35
            2  0  0  2     4.350     36
            1  1  0  2     4.350     37
            1  0  1  2     4.350     38
            0  2  0  2     4.350     39
            0  1  1  2     4.350     40
            0  0  2  2     4.350     41
            2  0  0  2     2.000     42
            1  1  0  2     2.000     43
            1  0  1  2     2.000     44
            0  2  0  2     2.000     45
            0  1  1  2     2.000     46
            0  0  2  2     2.000     47
            3  0  0  0    16.150     48
            2  1  0  0    16.150     49
            2  0  1  0    16.150     50
            1  2  0  0    16.150     51
            1  1  1  0    16.150     52
            1  0  2  0    16.150     53
            0  3  0  0    16.150     54
            0  2  1  0    16.150     55
            0  1  2  0    16.150     56
            0  0  3  0    16.150     57
            3  0  0  0     8.900     58
            2  1  0  0     8.900     59
            2  0  1  0     8.900     60
            1  2  0  0     8.900     61
            1  1  1  0     8.900     62
            1  0  2  0     8.900     63
            0  3  0  0     8.900     64
            0  2  1  0     8.900     65
            0  1  2  0     8.900     66
            0  0  3  0     8.900     67
            3  0  0  0     4.900     68
            2  1  0  0     4.900     69
            2  0  1  0     4.900     70
            1  2  0  0     4.900     71
            1  1  1  0     4.900     72
            1  0  2  0     4.900     73
            0  3  0  0     4.900     74
            0  2  1  0     4.900     75
            0  1  2  0     4.900     76
            0  0  3  0     4.900     77
            1  0  0  4     1.950     78
            0  1  0  4     1.950     79
            0  0  1  4     1.950     80

 Total number of charge fitting functions (nprimf)       327
 Total number of Cartesian basis functions (naos)         80
 Total number of Cartesian core functions  (ncos)         25



 BAS: List of all Elementary Cartesian Basis Functions
 =====================================================

 The numbering in the list below (to the right of the function characteristics) is referred
 to in print-outs of MO eigenvectors and Mulliken populations in the BAS representation
 (as contrasted to the SFO representation).

 Notes:
 1. The functions are characterized by a polynomial prefactor (powers of x,y,z and r) and
    an exponential decay factor alpha.
 2. Since the basis sets are specific for an atom TYPE, the individual functions occur on
    all atoms of that type.
 3. The word 'Core' in the left margin signals that it is a Core Function (CF) : not a
    degree of freedom in the valence set, but only used to ensure orthogonalization of
    the other valence basis functions on the frozen Core Orbitals.


 (power of) X  Y  Z  R     Alpha  on Atom
            ==========     =====     ==========

 Au                                   1
                                  ---------------------------------------------------------------------------
    Core    0  0  0  0    57.000      1
    Core    0  0  0  1    36.650      2
    Core    0  0  0  2    21.050      3
    Core    0  0  0  3    12.400      4
    Core    1  0  0  0    39.650      5
    Core    0  1  0  0    39.650      6
    Core    0  0  1  0    39.650      7
    Core    1  0  0  1    17.950      8
    Core    0  1  0  1    17.950      9
    Core    0  0  1  1    17.950     10
    Core    1  0  0  2    12.550     11
    Core    0  1  0  2    12.550     12
    Core    0  0  1  2    12.550     13
    Core    2  0  0  0    22.100     14
    Core    1  1  0  0    22.100     15
    Core    1  0  1  0    22.100     16
    Core    0  2  0  0    22.100     17
    Core    0  1  1  0    22.100     18
    Core    0  0  2  0    22.100     19
    Core    2  0  0  1    11.200     20
    Core    1  1  0  1    11.200     21
    Core    1  0  1  1    11.200     22
    Core    0  2  0  1    11.200     23
    Core    0  1  1  1    11.200     24
    Core    0  0  2  1    11.200     25
            0  0  0  4     7.000     26
            0  0  0  4     4.600     27
            0  0  0  5     2.850     28
            0  0  0  5     1.510     29
            1  0  0  3     6.000     30
            0  1  0  3     6.000     31
            0  0  1  3     6.000     32
            1  0  0  3     3.700     33
            0  1  0  3     3.700     34
            0  0  1  3     3.700     35
            2  0  0  2     4.350     36
            1  1  0  2     4.350     37
            1  0  1  2     4.350     38
            0  2  0  2     4.350     39
            0  1  1  2     4.350     40
            0  0  2  2     4.350     41
            2  0  0  2     2.000     42
            1  1  0  2     2.000     43
            1  0  1  2     2.000     44
            0  2  0  2     2.000     45
            0  1  1  2     2.000     46
            0  0  2  2     2.000     47
            3  0  0  0    16.150     48
            2  1  0  0    16.150     49
            2  0  1  0    16.150     50
            1  2  0  0    16.150     51
            1  1  1  0    16.150     52
            1  0  2  0    16.150     53
            0  3  0  0    16.150     54
            0  2  1  0    16.150     55
            0  1  2  0    16.150     56
            0  0  3  0    16.150     57
            3  0  0  0     8.900     58
            2  1  0  0     8.900     59
            2  0  1  0     8.900     60
            1  2  0  0     8.900     61
            1  1  1  0     8.900     62
            1  0  2  0     8.900     63
            0  3  0  0     8.900     64
            0  2  1  0     8.900     65
            0  1  2  0     8.900     66
            0  0  3  0     8.900     67
            3  0  0  0     4.900     68
            2  1  0  0     4.900     69
            2  0  1  0     4.900     70
            1  2  0  0     4.900     71
            1  1  1  0     4.900     72
            1  0  2  0     4.900     73
            0  3  0  0     4.900     74
            0  2  1  0     4.900     75
            0  1  2  0     4.900     76
            0  0  3  0     4.900     77
            1  0  0  4     1.950     78
            0  1  0  4     1.950     79
            0  0  1  4     1.950     80
1
 ***************************************************************************************************



                                              ***********************
                                              *  T E C H N I C A L  *
                                              ***********************
  



 =============================================================
 P A R A L L E L I Z A T I O N  and  V E C T O R I Z A T I O N
 =============================================================
  
 Nr of parallel processes:                                1
 Maximum vector length in NumInt loops:                 128



 =====================
 S C F   U P D A T E S
 =====================
  
 Max. nr. of cycles:                               300
 Convergence criterion:                              0.0000000100
   secondary criterion:                              0.0000000100

 Mix parameter (when DIIS does not apply):           0.2000000000
 Special mix parameter for the first cycle:          1.0000000000
 Mixed ADIIS+SDIIS will be used                  
    Max number of expansion vectors:                10
    Pure ADIIS when Max([F,P]) is above              0.1000000000
    Pure SDIIS when Max([F,P]) is below              0.0010000000
 Automatic ElectronSmearing (in case of problematic SCF convergence) disabled



 =================
 P R E C I S I O N  ***  (General: NumInt, NeglectFunctionTails, ...)  ***
 =================
  

 NumInt:           Target precision:                12.0000000000
 -------           Initial precision:               10.0000000000
                   Min. precision (optimization):   10.0000000000

 Neglect Functions:          Basis functions:        0.1000000000E-13
 ------------------          Fit functions:          0.1000000000E-13



 ===========================
 L I N E A R   S C A L I N G
 ===========================
  

 Cut-off radii density fit:                        0.1000000000E-97
 Overlap cut-off criterion AO matrix elements:     0.1000000000E-97
 Cut-offs for Coulomb potential and fitted density:0.1000000000E-97
 Cut-off criterion for Coulomb multipole terms:    0.1000000000E-97
 Progressive Convergence parameter:                 0.000000000    
1
 ***************************************************************************************************



                                            ***************************
                                            *  C O M P U T A T I O N  *
                                            ***************************
  

 Number of elements of the density matrix on this node (used, total):      3240      3240



 ===========================================
 Numerical Integration : Fuzzy Cells (Becke)
 ===========================================
  
 Becke grid quality: VERYGOOD       
  
 Lebedev angular grid order:             min:  13 max:  41
 Nr. of radial points:                   min: 123 max: 123

 Total nr. of points:        123
 Nr. of blocks:                1
 Block length:               123
 Nr. of dummy points:          0


 Test of Precision of the Numerical Integration Grid
 ===================================================

 Integral of the Total Core Density:                  45.99999991226612
 Relative Error:                                      -1.907E-09



 ========================
 Density Fitting (zlmFit)
 ========================
  
 ZlmFit Fit Quality: VERYGOOD       
  
 Max L-expansion:                        min:   0 max:   0
 Nr. of radial interpolation points:     min: 270 max: 270



 =====
 S C F  ***  ScaSCF  ***
 =====
  

 CYCLE    1
 SCF Error: norm([F,P])=      0.000000000000, max([F,P])=      0.000000000000
 orbitals (Q,E):
 ---------------
 S :1...4            ( 2.00   -36.7762)  ( 1.00   -21.6820)  ( 0.00   -12.9085)  ( 0.00    -7.1191)
 P :1...3            ( 6.00   -33.0866)  ( 0.00   -18.4007)  ( 0.00    -9.4584)
 D :1...2            (10.00   -25.1484)  ( 0.00   -11.3803)
[...]
 <Feb04-2021> <20:27:28>      4      0.46758430      0.27634710    100.0
 <Feb04-2021> <20:27:28>      5      0.50410652      0.30498859    100.0
 <Feb04-2021> <20:27:28>      6      0.01247625      0.00764533      6.7
 <Feb04-2021> <20:27:28>      7      0.00085022      0.00051605      0.0
 <Feb04-2021> <20:27:28>      8      0.00000244      0.00000146      0.0
 <Feb04-2021> <20:27:28>      9      0.00000001      0.00000000      0.0
 <Feb04-2021> <20:27:28>  SCF converged
 <Feb04-2021> <20:27:28>     10      0.00000000      0.00000000      0.0
 <Feb04-2021> <20:27:28>  >>>> POPAN
 <Feb04-2021> <20:27:28>  >>>> DEBYE
 <Feb04-2021> <20:27:28>  NORMAL TERMINATION
 <Feb04-2021> <20:27:28>  END
 <Feb04-2021> <20:27:28>  DIRAC 2019  RunTime: Feb04-2021 20:27:28  Nodes: 1  Procs: 1
 <Feb04-2021> <20:27:29>  NORMAL TERMINATION
 <Feb04-2021> <20:27:29>  END
 <Feb04-2021> <20:27:29>  ADF 2019  RunTime: Feb04-2021 20:27:29  Nodes: 1  Procs: 1
 <Feb04-2021> <20:27:29>  Carbon (DZ, 1s frozen)
 <Feb04-2021> <20:27:29>  RunType   : CREATE
 <Feb04-2021> <20:27:29>  Net Charge: 0 (Nuclei minus Electrons)
 <Feb04-2021> <20:27:29>  Symmetry  : ATOM
  Coordinates
    Atom         X           Y           Z   (Angstrom)
    1.C         0.000000    0.000000    0.000000
 <Feb04-2021> <20:27:29>  >>>> CORORT
 <Feb04-2021> <20:27:29>  >>>> CLSMAT
 <Feb04-2021> <20:27:29>  >>>> ORTHON
 <Feb04-2021> <20:27:29>  >>>> GENPT
 <Feb04-2021> <20:27:29>  Block Length=  68
 <Feb04-2021> <20:27:29>  >>>> PTBAS
 <Feb04-2021> <20:27:29>  >>>> CYCLE
 <Feb04-2021> <20:27:29>              |Error|         MaxErr       Wt(A-DIIS)
 <Feb04-2021> <20:27:29>      1      0.00000000      0.00000000
 <Feb04-2021> <20:27:29>      2      0.96385221      0.85255436
 <Feb04-2021> <20:27:29>      3      0.69816270      0.60759186    100.0
 <Feb04-2021> <20:27:29>      4      0.25244702      0.20719292    100.0
 <Feb04-2021> <20:27:29>      5      0.19639955      0.16352478    100.0
 <Feb04-2021> <20:27:29>      6      0.03180040      0.02617408     25.4
 <Feb04-2021> <20:27:29>      7      0.00638036      0.00527666      4.3
 <Feb04-2021> <20:27:29>      8      0.00018258      0.00015050      0.0
 <Feb04-2021> <20:27:29>      9      0.00000052      0.00000043      0.0
 <Feb04-2021> <20:27:30>     10      0.00000000      0.00000000      0.0
 <Feb04-2021> <20:27:30>  SCF converged
 <Feb04-2021> <20:27:30>     11      0.00000000      0.00000000      0.0
 <Feb04-2021> <20:27:30>  >>>> POPAN
 <Feb04-2021> <20:27:30>  >>>> DEBYE
 <Feb04-2021> <20:27:30>  NORMAL TERMINATION
 <Feb04-2021> <20:27:30>  END
 <Feb04-2021> <20:27:30>  DIRAC 2019  RunTime: Feb04-2021 20:27:30  Nodes: 1  Procs: 1
 <Feb04-2021> <20:27:30>  NORMAL TERMINATION
 <Feb04-2021> <20:27:30>  END
 <Feb04-2021> <20:27:30>  ADF 2019  RunTime: Feb04-2021 20:27:30  Nodes: 1  Procs: 1
 <Feb04-2021> <20:27:30>  Sulphur (DZ, 1s frozen)
 <Feb04-2021> <20:27:30>  RunType   : CREATE
 <Feb04-2021> <20:27:30>  Net Charge: 0 (Nuclei minus Electrons)
 <Feb04-2021> <20:27:30>  Symmetry  : ATOM
  Coordinates
    Atom         X           Y           Z   (Angstrom)
    1.S         0.000000    0.000000    0.000000
 <Feb04-2021> <20:27:30>  >>>> CORORT
 <Feb04-2021> <20:27:30>  >>>> CLSMAT
 <Feb04-2021> <20:27:30>  >>>> ORTHON
 <Feb04-2021> <20:27:30>  >>>> GENPT
 <Feb04-2021> <20:27:30>  Block Length=  81
 <Feb04-2021> <20:27:31>  >>>> PTBAS
 <Feb04-2021> <20:27:31>  >>>> CYCLE
 <Feb04-2021> <20:27:31>              |Error|         MaxErr       Wt(A-DIIS)
 <Feb04-2021> <20:27:31>      1      0.00000000      0.00000000
 <Feb04-2021> <20:27:31>      2     21.51261243      7.94990220    100.0
 <Feb04-2021> <20:27:31>      3      8.52424195      2.62505450    100.0
 <Feb04-2021> <20:27:31>      4      4.38544525      1.60446246    100.0
 <Feb04-2021> <20:27:31>      5      1.43256362      0.55140611    100.0
 <Feb04-2021> <20:27:31>      6      0.89172576      0.34614537    100.0
 <Feb04-2021> <20:27:31>      7      0.16625992      0.07286926     72.6
 <Feb04-2021> <20:27:31>      8      0.10006764      0.04307754     42.5
 <Feb04-2021> <20:27:31>      9      0.01425650      0.00614423      5.2
 <Feb04-2021> <20:27:31>     10      0.00065307      0.00028041      0.0
 <Feb04-2021> <20:27:31>     11      0.00000094      0.00000039      0.0
 <Feb04-2021> <20:27:31>     12      0.00000001      0.00000000      0.0
 <Feb04-2021> <20:27:31>  SCF converged
 <Feb04-2021> <20:27:31>     13      0.00000000      0.00000000      0.0
 <Feb04-2021> <20:27:31>  >>>> POPAN
 <Feb04-2021> <20:27:31>  >>>> DEBYE
 <Feb04-2021> <20:27:31>  NORMAL TERMINATION
 <Feb04-2021> <20:27:31>  END
 <Feb04-2021> <20:27:32>  ADF 2019  RunTime: Feb04-2021 20:27:32  Nodes: 1  Procs: 1
 <Feb04-2021> <20:27:32>  Au25 + Thiol + CYST compounds.
 <Feb04-2021> <20:27:32>  RunType   : SINGLE POINT
 <Feb04-2021> <20:27:32>  WARNING: Restricted Open-Shell calculation, Unrestricted setup may be needed
 <Feb04-2021> <20:27:32>  Net Charge: 0 (Nuclei minus Electrons)
 <Feb04-2021> <20:27:32>  Symmetry  : NOSYM
 <Feb04-2021> <20:27:32>  >>>> FRAGM
  Coordinates
    Atom         X           Y           Z   (Angstrom)
    1.Au        9.745215   10.677499   10.299817
    2.Au        9.364726   10.591858   13.140243
    3.Au       12.117932   10.746101   11.894957
    4.Au       10.399894   12.982237   11.811299
    5.Au       10.547380    8.281298   11.598165
    6.Au        7.496989   12.050606   11.273001
    7.Au        7.656956    9.098299   11.426459
    8.Au       11.832089   12.265795    9.127470
    9.Au       12.059940    9.337886    9.340071
   10.Au        8.926430   13.060331    8.956638
   11.Au        7.396752   10.517123    8.699361
   12.Au        9.204532    8.307956    8.856345
   13.Au       10.118145   10.767094    7.464494
   14.Au        6.374565   10.553022   13.756824
   15.Au        8.641477    7.832166   14.109207
   16.Au       10.735902   13.419448    6.289457
   17.Au       13.028244   10.896909    6.698203
   18.Au       13.453934    7.614117   11.409106
   19.Au       11.420817    6.427219    9.465802
   20.Au        8.138877   14.985411   11.047100
   21.Au        5.880057   13.214215    9.070266
   22.Au       13.385134   13.453565   11.858627
   23.Au       11.772006   12.051902   14.527479
   24.Au        6.275662    7.767833    9.081399
   25.Au        7.755113    8.802726    6.255365
   26.S        10.318130    6.314620   13.195847
   27.S         6.962810    8.932878   15.491114
   28.S         5.315310   12.418837   12.571296
   29.S        14.324087    9.358804    8.106432
   30.S         9.185526   15.002064    7.317842
   31.S        12.193641   12.176276    4.773105
   32.S         9.811888    6.186599    7.570313
   33.S        14.231189    9.556368   12.696338
   34.S        13.149410    5.227592   10.808294
   35.S         5.348797   11.429998    7.482485
   36.S        10.301555   15.491672   12.152149
   37.S         5.815934   15.331459   10.303201
   38.S         9.840139   11.023343   15.614497
   39.S        13.375865   14.222710    9.544890
   40.S        14.045318   12.874792   14.126475
   41.S         9.623516    9.879455    5.111378
   42.S         6.018988    7.152669   11.468506
   43.S         5.524705    7.885790    6.737433
   44.C         8.619094    4.781635    8.159420
   45.C         8.557793    3.666336    7.083871
   46.H         7.632488    5.243265    8.311121
   47.H         8.988191    4.390562    9.119161
   48.N         7.489506    2.708650    7.340456
   49.H         9.533963    3.151112    7.039159
   50.H         8.383822    4.118808    6.092044
   51.C        14.502379    4.871642    9.462624
   52.C        13.892864    4.356482    8.136171
   53.H        15.165493    4.119273    9.921433
   54.H        15.070514    5.793197    9.291275
   55.N        14.877615    4.329413    7.066843
   56.H        13.068622    5.036661    7.852340
   57.H        13.434328    3.363811    8.314411
   58.C        15.570822   10.265501   11.514849
   59.C        16.596868    9.195460   11.109438
   60.H        16.050052   11.098246   12.049234
   61.H        15.048188   10.636488   10.626198
   62.N        17.484906    9.754182   10.083571
   63.H        16.046683    8.292760   10.766854
   64.H        17.197132    8.904125   11.987300
   65.C         6.111498   12.230856    5.876966
   66.C         5.778383   11.388942    4.630304
   67.H         7.197456   12.305150    6.021376
   68.H         5.676277   13.239139    5.799053
   69.N         6.398257   11.922277    3.413010
   70.H         4.685465   11.335721    4.489334
   71.H         6.144215   10.358967    4.776329
   72.C         5.997302   16.571711    8.829263
   73.C         4.918313   16.332245    7.754505
   74.H         6.992346   16.422847    8.392044
   75.H         5.920548   17.579022    9.269569
   76.N         5.060085   17.224939    6.602015
   77.H         3.909806   16.459107    8.182474
   78.H         4.996579   15.286088    7.408596
   79.C         9.634048   15.739107   13.944328
   80.C         8.485662   16.763989   13.984874
   81.H        10.488715   16.077595   14.550032
   82.H         9.294971   14.763147   14.305676
   83.N         7.882432   16.782572   15.336845
   84.H         7.744940   16.491872   13.205699
   85.H         8.878380   17.761532   13.724492
   86.C         5.776995   13.867195   13.764360
   87.C         5.247097   13.636990   15.187566
   88.H         5.333610   14.770588   13.319961
   89.H         6.869004   13.964857   13.768230
   90.N         5.733644   14.723800   16.075244
   91.H         5.576909   12.638663   15.535617
   92.H         4.143952   13.628294   15.166024
   93.C         5.526123    7.643694   15.455412
   94.C         5.851793    6.451924   16.379130
   95.N         4.793895    5.442591   16.393846
   96.H         6.019104    6.811167   17.408671
   97.H         6.789994    5.979770   16.040993
   98.H         5.405349    7.301894   14.419793
   99.H         4.623380    8.177211   15.791782
  100.C        11.825593    6.543945   14.379996
  101.C        11.853887    7.890286   15.114216
  102.H        12.711136    6.428220   13.735230
  103.H        11.763516    5.702321   15.089743
  104.N        13.166547    8.143340   15.787387
  105.H        11.069376    7.937217   15.886378
  106.H        11.698064    8.714826   14.405026
  107.C        10.945900    8.491109    5.018700
  108.C        10.524983    7.349363    4.087049
  109.H        11.096973    8.117079    6.037142
  110.H        11.864422    8.976816    4.661139
  111.N        11.502464    6.232632    4.254858
  112.H        10.559238    7.688665    3.038910
  113.H         9.484433    7.052152    4.323798
  114.C         5.591594    6.043603    6.190314
  115.C         4.611282    5.219025    7.030055
  116.H         6.614982    5.668725    6.296164
  117.H         5.310653    6.046997    5.124052
  118.N         4.721810    3.781070    6.653683
  119.H         3.590783    5.636329    6.913195
  120.H         4.892071    5.304949    8.093022
  121.C         4.270504    7.963757   11.693546
  122.C         3.209842    7.219781   10.856340
  123.H         4.335061    9.021297   11.403137
  124.H         4.041783    7.896956   12.768358
  125.N         1.858043    7.757121   11.023948
  126.H         3.203434    6.150180   11.127818
  127.H         3.486050    7.286438    9.789908
  128.C        14.241807    7.741120    7.071590
  129.C        14.763729    7.893979    5.640155
  130.H        13.197078    7.408400    7.066404
  131.H        14.854906    7.011592    7.613419
  132.N        14.520911    6.599496    4.948149
  133.H        15.847894    8.096710    5.658763
  134.H        14.266800    8.760230    5.155717
  135.C        13.715264   13.314417    4.383023
  136.C        14.974284   12.464515    4.078543
  137.H        13.887256   13.963138    5.249520
  138.H        13.411836   13.926509    3.517587
  139.N        16.210713   13.232098    4.111229
  140.H        14.853060   11.966131    3.099876
  141.H        15.047897   11.666185    4.840020
  142.C        10.442125   16.220945    8.164685
  143.C         9.710637   17.391142    8.846780
  144.H        11.022478   15.646768    8.895468
  145.H        11.109979   16.577854    7.364627
  146.N        10.616585   18.247183    9.623165
  147.H         8.956006   16.989587    9.545739
  148.H         9.184855   18.007434    8.097510
  149.C         8.704124   12.496080   16.087547
  150.C         9.421237   13.479976   17.024450
  151.H         7.841654   12.042037   16.597369
  152.H         8.370195   12.987464   15.166983
  153.N         8.494621   14.582013   17.381601
  154.H        10.342956   13.840470   16.528352
  155.H         9.731374   12.944097   17.936596
  156.C        14.049893   14.559998   15.068464
  157.C        13.683155   14.343987   16.555222
  158.H        15.081051   14.934585   14.960808
  159.H        13.347722   15.247871   14.571584
  160.N        14.496278   13.399723   17.298033
  161.H        12.635311   14.000456   16.606066
  162.H        13.724817   15.340988   17.041817
  163.C        15.182701   13.698612    9.083316
  164.C        15.373200   13.695419    7.563032
  165.H        15.386181   12.708336    9.510776
  166.H        15.828147   14.448255    9.568495
  167.N        16.764056   13.410306    7.134953
  168.H        15.076550   14.670372    7.142987
  169.H        14.720185   12.919828    7.128194
  170.H         4.699199    4.834902   15.580463
  171.H         3.935014    5.650177   16.902779
  172.H         6.569707   14.472731   16.645594
  173.H         4.994606   15.158198   16.638964
  174.H        13.886604    8.510904   15.143765
  175.H        13.508050    7.325275   16.316360
  176.H         8.538895   15.405390   16.745625
  177.H         8.537151   14.849708   18.371414
  178.H        14.285474   12.401073   17.220120
  179.H        15.467749   13.644063   17.487333
  180.H        17.441979   14.114968    7.455593
  181.H        17.074400   12.462986    7.388470
  182.H        17.121397    9.738386    9.129524
  183.H        18.486592    9.589246   10.179360
  184.H        14.826627    5.033689    6.310260
  185.H        15.434019    3.489376    6.924665
  186.H         7.608082    2.087752    8.143481
  187.H         6.524287    3.021488    7.118879
  188.H        11.510144    5.587332    3.452873
  189.H        11.324877    5.719084    5.130902
  190.H         4.518962    3.615387    5.657633
  191.H         4.129575    3.177129    7.241224
  192.H         1.677706    8.680738   10.624608
  193.H         1.392023    7.577948   11.915479
  194.H         6.060470   12.829355    3.082605
  195.H         7.408377   11.785585    3.325876
  196.H         4.762766   18.195111    6.720405
  197.H         5.891536   17.095592    6.021648
  198.H         7.017378   16.207407   15.424099
  199.H         7.776181   17.721681   15.734769
  200.H        11.307153   18.778463    9.084718
  201.H        10.989007   17.813714   10.474024
  202.H        16.392839   13.889232    3.352757
  203.H        16.589441   13.441932    5.049895
  204.H        15.176417    6.432433    4.173449
  205.H        13.528593    6.506462    4.638783
  206.O        13.898616   10.334831   17.021817
  207.C        12.986142    9.537742   17.231144
  208.O        12.031395    9.166075   17.903252
 <Feb04-2021> <20:27:35>  >>>> CORORT
 <Feb04-2021> <20:27:48>  >>>> CLSMAT
 <Feb04-2021> <20:27:55>  >>>> ORTHON
 <Feb04-2021> <20:28:11>  >>>> GENPT
 <Feb04-2021> <20:28:31>  Block Length= 128
 <Feb04-2021> <20:29:34>  >>>> PTBAS
 <Feb04-2021> <20:37:54>  >>>> CYCLE
 <Feb04-2021> <20:45:46>              |Error|         MaxErr       Wt(A-DIIS)
 <Feb04-2021> <20:45:46>      1      8.13522337      0.40612463
 <Feb04-2021> <20:54:32>      2      4.74900211      0.35542618    100.0
 <Feb04-2021> <21:03:20>      3     13.64722618      0.68543737    100.0
 <Feb04-2021> <21:12:32>      4      4.27851830      0.26860241    100.0
 <Feb04-2021> <21:21:15>      5      6.97264935      0.39137510    100.0
 <Feb04-2021> <21:29:58>      6      2.13359383      0.20395153    100.0
 <Feb04-2021> <21:38:57>      7      9.07686832      0.67586142    100.0
 <Feb04-2021> <21:47:49>      8      4.82467732      0.36487320    100.0
 <Feb04-2021> <21:56:35>      9      3.89928393      0.35308031    100.0
 <Feb04-2021> <22:05:21>     10      1.73889732      0.35844435    100.0
 <Feb04-2021> <22:14:09>     11      1.38056720      0.21746840    100.0
 <Feb04-2021> <22:23:02>     12      2.38441175      0.34109468    100.0
 <Feb04-2021> <22:31:52>     13      1.08523961      0.17759223    100.0
 <Feb04-2021> <22:40:43>     14      0.95210708      0.19809585    100.0
 <Feb04-2021> <22:49:30>     15      0.87789671      0.15708577    100.0
 <Feb04-2021> <22:58:22>     16      0.42545366      0.07088656     70.6
 <Feb04-2021> <23:07:08>     17      0.74216533      0.05283195    100.0
 <Feb04-2021> <23:15:55>     18      0.82078725      0.21229565    100.0
 <Feb04-2021> <23:24:43>     19      0.70547563      0.17204403    100.0
 <Feb04-2021> <23:33:31>     20      0.64278114      0.18358502    100.0
 <Feb04-2021> <23:42:21>     21      0.23383977      0.02818834     27.5
 <Feb04-2021> <23:51:09>     22      0.20382588      0.01462674     13.8
 <Feb04-2021> <23:59:56>     23      0.09150035      0.01121312     10.3
 <Feb05-2021> <00:08:43>     24      0.05222763      0.00612148      5.2
 <Feb05-2021> <00:17:29>     25      0.04444133      0.00894940      5.2
 <Feb05-2021> <00:26:16>     26      0.03343436      0.00923218      5.2
 <Feb05-2021> <00:35:03>     27      0.02365796      0.00713960      5.2
 <Feb05-2021> <00:43:51>     28      0.02515370      0.00499864      4.0
 <Feb05-2021> <00:52:38>     29      0.01385868      0.00416508      3.2
 <Feb05-2021> <01:01:25>     30      0.01397237      0.00421898      3.2
 <Feb05-2021> <01:10:13>     31      0.21894712      0.06044555    100.0
 <Feb05-2021> <01:19:03>     32      0.06415718      0.01987034    100.0
 <Feb05-2021> <01:28:01>     33      0.01616792      0.00520253    100.0
 <Feb05-2021> <01:37:09>     34      0.00418086      0.00029281      0.0
 <Feb05-2021> <01:46:15>     35      0.00139380      0.00010792      0.0
 <Feb05-2021> <01:55:21>     36      0.00092114      0.00008777      0.0
 <Feb05-2021> <02:04:27>     37      0.00044689      0.00004370      0.0
 <Feb05-2021> <02:13:40>     38      0.00035366      0.00006911      0.0
 <Feb05-2021> <02:22:54>     39      0.00017722      0.00005230      0.0
 <Feb05-2021> <02:32:08>     40      0.00008103      0.00001793      0.0
 <Feb05-2021> <02:41:21>     41      0.00004660      0.00000511      0.0
 <Feb05-2021> <02:50:34>     42      0.00003006      0.00000278      0.0
 <Feb05-2021> <02:59:47>     43      0.00001197      0.00000140      0.0
 <Feb05-2021> <03:09:00>     44      0.00001556      0.00000151      0.0
 <Feb05-2021> <03:18:11>     45      0.00000250      0.00000048      0.0
 <Feb05-2021> <03:19:52>  SCF converged
 <Feb05-2021> <03:25:03>     46      0.00000148      0.00000013      0.0
 <Feb05-2021> <03:25:15>  WARNING: partially occupied orbitals
 <Feb05-2021> <03:25:15>   Solutions with partially occupied orbitals may not be
 <Feb05-2021> <03:25:15>   lowest in energy. You might consider lowering the
 <Feb05-2021> <03:25:15>   symmetry in the input and explicitly specifying integer
 <Feb05-2021> <03:25:15>   occupations. In that case always check that you obtain
 <Feb05-2021> <03:25:15>   an aufbau solution.
 <Feb05-2021> <03:30:01>  >>>> TOTEN
 <Feb05-2021> <04:14:50>  >>>> POPAN
 <Feb05-2021> <04:14:52>  >>>> DEBYE
 <Feb05-2021> <04:15:04>  >>>> AMETS
 <Feb05-2021> <04:15:20>   Bond Energy         -36.86744250 a.u.
 <Feb05-2021> <04:15:20>   Bond Energy       -1003.21415440 eV
 <Feb05-2021> <04:15:20>   Bond Energy      -23134.67       kcal/mol
 <Feb05-2021> <04:15:20>  >>>> POPUL
 <Feb05-2021> <04:15:39>  NORMAL TERMINATION with warnings
 <Feb05-2021> <04:15:40>  END
