
 *******************************************************************************
 *                                                                             *
 *  -------------------------------------                                      *
 *   Amsterdam Density Functional  (ADF)         2019                          *
 *  -------------------------------------                                      *
 *                                               r74351 2019-04-25             *
 *                                                                             *
 *                                                                             *
 *                            =====================                            *
 *                            |                   |                            *
 *                            |     D I R A C     |                            *
 *                            |                   |                            *
 *                            =====================                            *
 *                                                                             *
 *                                                                             *
 *   Online information and documentation:  https://www.scm.com/support/       *
 *   E-mail:  support@scm.com   info@scm.com                                   *
 *                                                                             *
 *   Scientific publications using ADF results must be properly referenced     *
 *   See the User Manuals (or the web site) for recommended citations          *
 *   The terms and conditions of the End User License Agreement apply to       *
 *   the use of ADF, https://www.scm.com/license-terms/                        *
 *                                                                             *
 **********************  x86_64_linux_intel / intelmpi  ************************
 
 Licensed to: Dr. Emilie Guidez / UC Denver / Denver / CO / USA
 SCM User ID: u20218
  
 DIRAC 2019  RunTime: Feb04-2021 20:23:22  Nodes: 1  Procs: 1

 Temporary files are created in /home/chemistry/limjae/scr/kid_0.1137909636

1
 HYDROGEN ATOM RELATIVISTIC, Point Nuc, A and c from libtc   
 N J RN H ZN XION ANUC CLIGHT
 5000    1100.00000000197.36710137  1.00000000  0.00000000    1.007825  0.1370360E+03
  PH   PHI     EPS        DEL        DELRVR
  0.30  0.30     2500.00  0.00001000  0.00001000
 IDIRC  NC1  NDEBU NPRIN  IPUN IRCOR IWCOR
   1   300     0     0     0     0     0
   XALPHA      XLATTER      RNUC
  0.70000000  0.00000000  0.00000000 Point Charge
   XN   XL   XJ      XE          XZ      XDELL
  1.0  0.0  0.5      -1.000       1.000     0.00000
 ICORP=  0  NPCL=  0  DEMP=0.00  PEPS=0.000000
 R(1)=  0.1000000E-08 D=  0.1005080E+01 RNUC=  0.0000000E+00
 converged at cycle   32  DENSITY AVERAGING    0.2400
  MAXIMUM ERROR IN R.V(R) IS   0.79874357E-05
 Q,EY,EV,EZ,ESUM,ETOT,RHO  0.100000E+01 -0.266614E+00 -0.619969E+00 -0.910779E+00 -0.203940E+00 -0.415998E+00  0.337036E-17


 DIRAC CALCULATION
1                    HYDROGEN ATOM RELATIVISTIC, Point Nuc, A and c from libtc


 EXCHANGE COEFFICIENT=  0.7000000           TAIL CORRECTION=  0.           NUCLEAR RADIUS=  0.000E+00
0                       ORBITAL    N    L    J     ELECTRONS     EIGENVALUE                DELTA OF EIGENV.

                          1S1/2  1.0  0.0  0.5     1.000       -0.2039397E+00                 0.2720093E-06


                                        NUCLEAR CHARGE=    1.000000
                            INTEGRAL OF CHARGE DENSITY=    1.000000
                           SUM OF THE ORBITAL ENERGIES=     -0.2039
                                          TOTAL ENERGY=     -0.4160
                                        KINETIC ENERGY=      0.4160
                             NUCLEAR ATTRACTION ENERGY=     -0.9108
                             ELECTRON REPULSION ENERGY=      0.2787
                                       EXCHANGE ENERGY=     -0.2000

 *******************************************************************************

                             D I R A C   E X I T
 NORMAL TERMINATION



 =================
 Timing Statistics
 =================
  
 Total Used :                     CPU=        0.07      System=        0.01     Elapsed=        0.14

 Calls  Section                     ( Mean, Percentage )
 ---------------------------------------------------------------------------------------------------
     2  ><      ................      0.00    0.02             0.00    0.14             0.00    0.02
     1  EXIT PROCEDURE .........      0.07   99.98             0.01   99.86             0.14   99.98


 Currently Open Files (EXIT00)
 ====================

 Unit    Access Format  Status   Type       Ident (file)
 -------------------------------------------------------
   3      SEQ    FORM   TRANSP  NORMAL      LOGFILE
                                          ( logfile )
 
Create H   file=DZ-H
XC
 GGA PBE
End
relativistic ZORA
Corepotentials t12.rel
End

 *******************************************************************************
 *                                                                             *
 *  -------------------------------------                                      *
 *   Amsterdam Density Functional  (ADF)         2019                          *
 *  -------------------------------------                                      *
 *                                               r74351 2019-04-25             *
 *                                                                             *
 *                                                                             *
 *                              =================                              *
 *                              |               |                              *
 *                              |     A D F     |                              *
 *                              |               |                              *
 *                              =================                              *
 *                                                                             *
 *                                                                             *
 *   Online information and documentation:  https://www.scm.com/support/       *
 *   E-mail:  support@scm.com   info@scm.com                                   *
 *                                                                             *
 *   Scientific publications using ADF results must be properly referenced     *
 *   See the User Manuals (or the web site) for recommended citations          *
 *   The terms and conditions of the End User License Agreement apply to       *
 *   the use of ADF, https://www.scm.com/license-terms/                        *
 *                                                                             *
 **********************  x86_64_linux_intel / intelmpi  ************************
 
 Licensed to: Dr. Emilie Guidez / UC Denver / Denver / CO / USA
 SCM User ID: u20218
  
 ADF 2019  RunTime: Feb04-2021 20:23:22  Nodes: 1  Procs: 1

 Temporary files are created in /home/chemistry/limjae/scr/kid_0.980178738

 Hydrogen (DZ)



 ===========================
 A T T A C H E D   F I L E S
 ===========================
  
 CREATE - Data File:    DZ-H
                        Hydrogen (DZ)
 Core Potentials:
         file : t12.rel



 ===============================
 M O D E L   P A R A M E T E R S
 ===============================
  
 DENSITY FUNCTIONAL POTENTIAL (scf)
    LDA:                               PW92                                    == Not Default ==
    Gradient Corrections:              PBEc PBEx                               == Not Default ==

 SPIN  (restricted / unrestr.)
    Molecule:                          Restricted                               

 OTHER ASPECTS
    Relativistic Corrections:          scalar (ZORA,MAPA)                      == Not Default ==

    Nuclear Charge Density Model:      Point Charge Nuclei                      
    Core Treatment:                    Frozen Orbital(s)                        

    Hyperfine or Zeeman Interaction:   ---                                      



 =====================================
 S Y M M E T R Y ,   E L E C T R O N S
 =====================================
  
 Symmetry: ATOM

 Irreducible Representations, including subspecies
 -------------------------------------------------
 S
 P:x  P:y  P:z
 D:z2  D:x2-y2  D:xy  D:xz  D:yz
 F:z3  F:z  F:xyz  F:z2x  F:z2y  F:x  F:y


 Configuration of Valence Electrons
 ==================================

          Occupation Numbers
          -------------------------------------------------
 S        1
 P        0
 D        0
 F        0
          -------------------------------------------------

 Total:   1

 Net Charge: 0 (Nuclei minus Electrons)

 Preset values for MO occupations will be applied through SCF cycle no. 1000000
 Thereafter, the program will assign electrons to MOs that are spatially
 similar to the occupied MOs in a "reference" cycle ("KeepOrbitals").
 The reference cycle is always the PREVIOUS cycle: it will evolve with
 the SCF procedure.



 ================================
 (Slater-type)  F U N C T I O N S  ***  (Basis and Fit)  ***
 ================================
  

 Atom Type    1  (H)
 ==============

 Valence Basis Sets:   2
 -----------------------
   1 S    0.760000
   1 S    1.280000


 BAS: List of all Elementary Cartesian Basis Functions
 =====================================================

 The numbering in the list below (to the right of the function characteristics) is referred
 to in print-outs of MO eigenvectors and Mulliken populations in the BAS representation
 (as contrasted to the SFO representation).

 Notes:
 1. The functions are characterized by a polynomial prefactor (powers of x,y,z and r) and
    an exponential decay factor alpha.
 2. Since the basis sets are specific for an atom TYPE, the individual functions occur on
    all atoms of that type.
 3. The word 'Core' in the left margin signals that it is a Core Function (CF) : not a
    degree of freedom in the valence set, but only used to ensure orthogonalization of
    the other valence basis functions on the frozen Core Orbitals.


 (power of) X  Y  Z  R     Alpha  on Atom
            ==========     =====     ==========

 H                                    1
                                  ---------------------------------------------------------------------------
            0  0  0  0     0.760      1
            0  0  0  0     1.280      2

 Total number of charge fitting functions (nprimf)        50
 Total number of Cartesian basis functions (naos)          2
 Total number of Cartesian core functions  (ncos)          0



 BAS: List of all Elementary Cartesian Basis Functions
 =====================================================

 The numbering in the list below (to the right of the function characteristics) is referred
 to in print-outs of MO eigenvectors and Mulliken populations in the BAS representation
 (as contrasted to the SFO representation).

 Notes:
 1. The functions are characterized by a polynomial prefactor (powers of x,y,z and r) and
    an exponential decay factor alpha.
 2. Since the basis sets are specific for an atom TYPE, the individual functions occur on
    all atoms of that type.
 3. The word 'Core' in the left margin signals that it is a Core Function (CF) : not a
    degree of freedom in the valence set, but only used to ensure orthogonalization of
    the other valence basis functions on the frozen Core Orbitals.


 (power of) X  Y  Z  R     Alpha  on Atom
            ==========     =====     ==========

 H                                    1
                                  ---------------------------------------------------------------------------
            0  0  0  0     0.760      1
            0  0  0  0     1.280      2
1
 ***************************************************************************************************



                                              ***********************
                                              *  T E C H N I C A L  *
                                              ***********************
  



 =============================================================
 P A R A L L E L I Z A T I O N  and  V E C T O R I Z A T I O N
 =============================================================
  
 Nr of parallel processes:                                1
 Maximum vector length in NumInt loops:                 128



 =====================
 S C F   U P D A T E S
 =====================
  
 Max. nr. of cycles:                               300
 Convergence criterion:                              0.0000000100
   secondary criterion:                              0.0000000100

 Mix parameter (when DIIS does not apply):           0.2000000000
 Special mix parameter for the first cycle:          1.0000000000
 Mixed ADIIS+SDIIS will be used                  
    Max number of expansion vectors:                10
    Pure ADIIS when Max([F,P]) is above              0.1000000000
    Pure SDIIS when Max([F,P]) is below              0.0010000000
 Automatic ElectronSmearing (in case of problematic SCF convergence) disabled



 =================
 P R E C I S I O N  ***  (General: NumInt, NeglectFunctionTails, ...)  ***
 =================
  

 NumInt:           Target precision:                12.0000000000
 -------           Initial precision:               10.0000000000
                   Min. precision (optimization):   10.0000000000

 Neglect Functions:          Basis functions:        0.1000000000E-13
 ------------------          Fit functions:          0.1000000000E-13



 ===========================
 L I N E A R   S C A L I N G
 ===========================
  

 Cut-off radii density fit:                        0.1000000000E-97
 Overlap cut-off criterion AO matrix elements:     0.1000000000E-97
 Cut-offs for Coulomb potential and fitted density:0.1000000000E-97
 Cut-off criterion for Coulomb multipole terms:    0.1000000000E-97
 Progressive Convergence parameter:                 0.000000000    
1
 ***************************************************************************************************



                                            ***************************
                                            *  C O M P U T A T I O N  *
                                            ***************************
  

 Number of elements of the density matrix on this node (used, total):         3         3



 ===========================================
 Numerical Integration : Fuzzy Cells (Becke)
 ===========================================
  
 Becke grid quality: VERYGOOD       
  
 Lebedev angular grid order:             min:  13 max:  41
 Nr. of radial points:                   min:  64 max:  64

 Total nr. of points:         64
 Nr. of blocks:                1
 Block length:                64
 Nr. of dummy points:          0


 Test of Precision of the Numerical Integration Grid
 ===================================================

 Integral of the Total Core Density:                   0.00000000000000



 ========================
 Density Fitting (zlmFit)
 ========================
  
 ZlmFit Fit Quality: VERYGOOD       
  
 Max L-expansion:                        min:   0 max:   0
 Nr. of radial interpolation points:     min: 120 max: 120



 =====
 S C F  ***  ScaSCF  ***
 =====
  

 CYCLE    1
 SCF Error: norm([F,P])=      0.000000000000, max([F,P])=      0.000000000000
 orbitals (Q,E):
 ---------------
 S :1...2            ( 1.00    -0.4983)  ( 0.00     0.1718)

 CYCLE    2
 SCF Error: norm([F,P])=      0.033001933656, max([F,P])=      0.033001933656
 orbitals (Q,E):
 ---------------
 S :1...2            ( 1.00    -0.2268)  ( 0.00     0.4005)

 CYCLE    3
  SDIIS (wt  0.000):  0.1528  0.8472
 A-DIIS (wt  1.000):  0.0000  1.0000
  DIIS coefficients:  0.0000  1.0000
 SCF Error: norm([F,P])=      0.005954454000, max([F,P])=      0.005954454000
 orbitals (Q,E):
 ---------------
 S :1...2            ( 1.00    -0.2417)  ( 0.00     0.3884)

 CYCLE    4
  SDIIS (wt  1.000):  0.1463  0.8537
 A-DIIS (wt  0.000):  0.0000  1.0000
  DIIS coefficients:  0.1463  0.8537
 SCF Error: norm([F,P])=      0.001020399433, max([F,P])=      0.001020399433
 orbitals (Q,E):
 ---------------
 S :1...2            ( 1.00    -0.2394)  ( 0.00     0.3902)

 CYCLE    5
  SDIIS (wt  1.000):  0.0014  0.9986
  DIIS coefficients:  0.0014  0.9986
 SCF Error: norm([F,P])=      0.000001436995, max([F,P])=      0.000001436995
 orbitals (Q,E):
 ---------------
 S :1...2            ( 1.00    -0.2394)  ( 0.00     0.3902)

 CYCLE    6
  SDIIS (wt  1.000): -0.0002  1.0002
  DIIS coefficients: -0.0002  1.0002
 SCF Error: norm([F,P])=      0.000000000334, max([F,P])=      0.000000000334
 orbitals (Q,E):
 ---------------
 S :1...2            ( 1.00    -0.2394)  ( 0.00     0.3902)

 SCF CONVERGED

 CYCLE    7
1
 ***************************************************************************************************



                                                *******************
                                                *  R E S U L T S  *
                                                *******************
  
 *** Using FIT density in Focky
  SDIIS (wt  1.000):  0.0000  1.0000
  DIIS coefficients:  0.0000  1.0000
 SCF Error: norm([F,P])=      0.000000000000, max([F,P])=      0.000000000000

 Scaled ZORA Orbital Energies, per Irrep and Spin:
 =================================================
                        Occup              E (au)              E (eV)       Diff (eV) with prev. cycle
                        -----      --------------------        ------       --------------------------
 S
               1        1.000     -0.23939248892723E+00        -6.514               9.37E-14
               2        0.000      0.39021645958604E+00        10.618


 Partially Occupied:
               1 S                -0.23939248892723E+00
  
 LUMO :        2 S                 0.39021645958604E+00
  


 All Electron Calculation, thus no Orbital Energies of the Core Orbitals are calculated



 =======================================
 M U L L I K E N   P O P U L A T I O N S
 =======================================
  
 The survey below gives for each atom:
 a) the total charge (Z minus electrons)
 b) the net spin polarization (nr of electrons spin-A minus spin-B)
 c) for each spin the atomic electron valence density (integrated) per L-value.

 Atom              Charge    Spin density          S         P         D         F
 ----              ------    ------------       ------    ------    ------    ------
 1 H              -0.0000                       1.0000    0.0000    0.0000    0.0000

 Populations of individual BAS functions
 ----------------------------------------
 1 H            0.6465  0.3535

 Gross Charges per Atom (Z minus electrons)
 ==========================================
            -0.0000
 Net Total: -0.00000000



 =======================================================================
 Electrostatic potential at the Nuclei due to electrons and other nuclei
 =======================================================================
  
         Atom                  Potential
         ----                  ---------
     1)   H                   0.94379605
 
 
 ========================
 No memory problems found
 ========================
 
 Maximum number of active allocate calls:         264
 
 *******************************************************************************

                             A D F   E X I T
 NORMAL TERMINATION



 =================
 Timing Statistics
 =================
  
 Total Used :                     CPU=        0.51      System=        0.10     Elapsed=        0.91

 Calls  Section                     ( Mean, Percentage )
 ---------------------------------------------------------------------------------------------------
     3  ><      ................      0.00    1.13             0.00    0.97             0.00    1.19
     1  INIT    ................      0.09   16.76             0.03   34.78             0.15   16.91
     1  GEOMET  ................      0.04    7.01             0.01   11.80             0.09   10.21
     1  INPUTA  ................      0.01    1.91             0.00    5.08             0.03    3.55
     1  MAINSY  ................      0.02    4.16             0.01    8.85             0.06    6.11
     1  SYMFIT  ................      0.00    0.43             0.00    1.26             0.00    0.46
     1  CORORT  ................      0.00    0.41             0.00    0.14             0.01    0.55
     1  SYMORB  ................      0.00    0.25             0.00    0.29             0.00    0.32
     1  CLSMAT  ................      0.01    1.98             0.00    1.28             0.02    2.06
     1  ORTHON  ................      0.01    1.57             0.00    0.31             0.01    1.25
     1  GENPT   ................      0.01    2.89             0.00    4.28             0.03    3.44
     1  PTBAS   ................      0.01    1.62             0.00    0.83             0.02    2.01
     7  FOCKY   ................      0.03   42.09             0.00   15.75             0.04   31.28
     7  FOCKTR  ................      0.00    1.68             0.00    0.43             0.00    1.94
     7  SDIIS   ................      0.00    5.70             0.00   10.39             0.01    9.30
     1  COREPS  ................      0.02    4.13             0.00    3.22             0.03    3.66
     1  POPAN   ................      0.01    1.55             0.00    0.00             0.01    1.47
     1  DEBYE   ................      0.00    0.89             0.00    0.00             0.01    0.83
     1  EXIT PROCEDURE .........      0.02    3.85             0.00    0.35             0.03    3.45


 Currently Open Files (EXIT00)
 ====================

 Unit    Access Format  Status   Type       Ident (file)
 -------------------------------------------------------
   3      SEQ    FORM   TRANSP  NORMAL      LOGFILE
                                          ( logfile )

 ***************************************************************************************************
 (LOGFILE)
 <Feb04-2021> <20:23:22>  DIRAC 2019  RunTime: Feb04-2021 20:23:22  Nodes: 1  Procs: 1
 <Feb04-2021> <20:23:22>  NORMAL TERMINATION
 <Feb04-2021> <20:23:22>  END
 <Feb04-2021> <20:23:22>  ADF 2019  RunTime: Feb04-2021 20:23:22  Nodes: 1  Procs: 1
 <Feb04-2021> <20:23:22>  Hydrogen (DZ)
 <Feb04-2021> <20:23:22>  RunType   : CREATE
 <Feb04-2021> <20:23:22>  Net Charge: 0 (Nuclei minus Electrons)
 <Feb04-2021> <20:23:22>  Symmetry  : ATOM
  Coordinates
    Atom         X           Y           Z   (Angstrom)
    1.H         0.000000    0.000000    0.000000
 <Feb04-2021> <20:23:23>  >>>> CORORT
 <Feb04-2021> <20:23:23>  >>>> CLSMAT
 <Feb04-2021> <20:23:23>  >>>> ORTHON
 <Feb04-2021> <20:23:23>  >>>> GENPT
 <Feb04-2021> <20:23:23>  Block Length=  64
 <Feb04-2021> <20:23:23>  >>>> PTBAS
 <Feb04-2021> <20:23:23>  >>>> CYCLE
 <Feb04-2021> <20:23:23>              |Error|         MaxErr       Wt(A-DIIS)
 <Feb04-2021> <20:23:23>      1      0.00000000      0.00000000
 <Feb04-2021> <20:23:23>      2      0.03300193      0.03300193
 <Feb04-2021> <20:23:23>      3      0.00595445      0.00595445    100.0
 <Feb04-2021> <20:23:23>      4      0.00102040      0.00102040      0.0
 <Feb04-2021> <20:23:23>      5      0.00000144      0.00000144      0.0
 <Feb04-2021> <20:23:23>      6      0.00000000      0.00000000      0.0
 <Feb04-2021> <20:23:23>  SCF converged
 <Feb04-2021> <20:23:23>      7      0.00000000      0.00000000      0.0
 <Feb04-2021> <20:23:23>  >>>> POPAN
 <Feb04-2021> <20:23:23>  >>>> DEBYE
 <Feb04-2021> <20:23:23>  NORMAL TERMINATION
 <Feb04-2021> <20:23:23>  END

 *******************************************************************************
 *                                                                             *
 *  -------------------------------------                                      *
 *   Amsterdam Density Functional  (ADF)         2019                          *
 *  -------------------------------------                                      *
 *                                               r74351 2019-04-25             *
 *                                                                             *
 *                                                                             *
 *                            =====================                            *
 *                            |                   |                            *
 *                            |     D I R A C     |                            *
 *                            |                   |                            *
 *                            =====================                            *
 *                                                                             *
 *                                                                             *
 *   Online information and documentation:  https://www.scm.com/support/       *
 *   E-mail:  support@scm.com   info@scm.com                                   *
 *                                                                             *
 *   Scientific publications using ADF results must be properly referenced     *
 *   See the User Manuals (or the web site) for recommended citations          *
 *   The terms and conditions of the End User License Agreement apply to       *
 *   the use of ADF, https://www.scm.com/license-terms/                        *
 *                                                                             *
 **********************  x86_64_linux_intel / intelmpi  ************************
 
 Licensed to: Dr. Emilie Guidez / UC Denver / Denver / CO / USA
 SCM User ID: u20218
  
 DIRAC 2019  RunTime: Feb04-2021 20:23:23  Nodes: 1  Procs: 1

 Temporary files are created in /home/chemistry/limjae/scr/kid_0.1608463941

1
 NITROGEN ATOM 1s CORE RELATIVISTIC, Point Nuc, A and c from 
 N J RN H ZN XION ANUC CLIGHT
 5000    4100.00000000197.36710137  7.00000000  0.00000000   14.003074  0.1370360E+03
  PH   PHI     EPS        DEL        DELRVR
  0.30  0.30     2500.00  0.00001000  0.00001000
 IDIRC  NC1  NDEBU NPRIN  IPUN IRCOR IWCOR
   1   300     0     0     0     0     1
   XALPHA      XLATTER      RNUC
  0.70000000  0.00000000  0.00000000 Point Charge
   XN   XL   XJ      XE          XZ      XDELL
  1.0  0.0  0.5      -5.000       2.000     0.00000
  2.0  0.0  0.5      -1.000       2.000     0.00000
  2.0  1.0  0.5      -1.000       2.000     0.00000
  2.0  1.0  1.5      -1.000       1.000     0.00000
 ICORP=  0  NPCL=  0  DEMP=0.00  PEPS=0.000000
 R(1)=  0.1000000E-08 D=  0.1005080E+01 RNUC=  0.0000000E+00
 converged at cycle   25  DENSITY AVERAGING    0.3000
  MAXIMUM ERROR IN R.V(R) IS   0.97905511E-05
 Q,EY,EV,EZ,ESUM,ETOT,RHO  0.700000E+01 -0.796419E+01 -0.840156E+02 -0.127663E+03 -0.300692E+02 -0.538837E+02  0.270066E-14


 DIRAC CALCULATION
1                    NITROGEN ATOM 1s CORE RELATIVISTIC, Point Nuc, A and c from libtc


 EXCHANGE COEFFICIENT=  0.7000000           TAIL CORRECTION=  0.           NUCLEAR RADIUS=  0.000E+00
0                       ORBITAL    N    L    J     ELECTRONS     EIGENVALUE                DELTA OF EIGENV.

                          1S1/2  1.0  0.0  0.5     2.000       -0.1403720E+02                 0.4993583E-04
                          2S1/2  2.0  0.0  0.5     2.000       -0.6456810E+00                 0.6544571E-05
                          2P1/2  2.0  1.0  0.5     2.000       -0.2347008E+00                 0.5687228E-05
                          2P3/2  2.0  1.0  1.5     1.000       -0.2339893E+00                 0.5679256E-05


                                        NUCLEAR CHARGE=    7.000000
                            INTEGRAL OF CHARGE DENSITY=    7.000000
                           SUM OF THE ORBITAL ENERGIES=    -30.0692
                                          TOTAL ENERGY=    -53.8837
                                        KINETIC ENERGY=     53.9465
                             NUCLEAR ATTRACTION ENERGY=   -127.6627
                             ELECTRON REPULSION ENERGY=     25.8056
                                       EXCHANGE ENERGY=     -5.9731

 *******************************************************************************

                             D I R A C   E X I T
 NORMAL TERMINATION



 =================
 Timing Statistics
 =================
  
 Total Used :                     CPU=        0.10      System=        0.01     Elapsed=        0.18

 Calls  Section                     ( Mean, Percentage )
 ---------------------------------------------------------------------------------------------------
     2  ><      ................      0.00    0.00             0.00    0.09             0.00    0.01
     1  EXIT PROCEDURE .........      0.10  100.00             0.01   99.91             0.18   99.99


 Currently Open Files (EXIT00)
 ====================

 Unit    Access Format  Status   Type       Ident (file)
 -------------------------------------------------------
   3      SEQ    FORM   TRANSP  NORMAL      LOGFILE
                                          ( logfile )
 
Create N   file=DZ-N.1s
XC
 GGA PBE
End
relativistic ZORA
Corepotentials t12.rel
End

 *******************************************************************************
 *                                                                             *
 *  -------------------------------------                                      *
 *   Amsterdam Density Functional  (ADF)         2019                          *
 *  -------------------------------------                                      *
 *                                               r74351 2019-04-25             *
 *                                                                             *
 *                                                                             *
 *                              =================                              *
 *                              |               |                              *
 *                              |     A D F     |                              *
 *                              |               |                              *
 *                              =================                              *
 *                                                                             *
 *                                                                             *
 *   Online information and documentation:  https://www.scm.com/support/       *
 *   E-mail:  support@scm.com   info@scm.com                                   *
 *                                                                             *
 *   Scientific publications using ADF results must be properly referenced     *
 *   See the User Manuals (or the web site) for recommended citations          *
 *   The terms and conditions of the End User License Agreement apply to       *
 *   the use of ADF, https://www.scm.com/license-terms/                        *
 *                                                                             *
 **********************  x86_64_linux_intel / intelmpi  ************************
 
 Licensed to: Dr. Emilie Guidez / UC Denver / Denver / CO / USA
 SCM User ID: u20218
  
 ADF 2019  RunTime: Feb04-2021 20:23:24  Nodes: 1  Procs: 1

 Temporary files are created in /home/chemistry/limjae/scr/kid_0.1869415292

 Nitrogen (DZ, 1s frozen)



 ===========================
 A T T A C H E D   F I L E S
 ===========================
  
 CREATE - Data File:    DZ-N.1s
                        Nitrogen (DZ, 1s frozen)
 Core Potentials:
         file : t12.rel



 ===============================
 M O D E L   P A R A M E T E R S
 ===============================
  
 DENSITY FUNCTIONAL POTENTIAL (scf)
    LDA:                               PW92                                    == Not Default ==
    Gradient Corrections:              PBEc PBEx                               == Not Default ==

 SPIN  (restricted / unrestr.)
    Molecule:                          Restricted                               

 OTHER ASPECTS
    Relativistic Corrections:          scalar (ZORA,MAPA)                      == Not Default ==

    Nuclear Charge Density Model:      Point Charge Nuclei                      
    Core Treatment:                    Frozen Orbital(s)                        

    Hyperfine or Zeeman Interaction:   ---                                      



 =====================================
 S Y M M E T R Y ,   E L E C T R O N S
 =====================================
  
 Symmetry: ATOM

 Irreducible Representations, including subspecies
 -------------------------------------------------
 S
 P:x  P:y  P:z
 D:z2  D:x2-y2  D:xy  D:xz  D:yz
 F:z3  F:z  F:xyz  F:z2x  F:z2y  F:x  F:y


 Configuration of Valence Electrons
 ==================================

          Occupation Numbers
          -------------------------------------------------
 S        2
 P        3
 D        0
 F        0
          -------------------------------------------------

 Total:   5

 Net Charge: 0 (Nuclei minus Electrons)

 Preset values for MO occupations will be applied through SCF cycle no. 1000000
 Thereafter, the program will assign electrons to MOs that are spatially
 similar to the occupied MOs in a "reference" cycle ("KeepOrbitals").
 The reference cycle is always the PREVIOUS cycle: it will evolve with
 the SCF procedure.



 ================================
 (Slater-type)  F U N C T I O N S  ***  (Basis and Fit)  ***
 ================================
  

 Atom Type    1  (N)
 ==============

 Valence Basis Sets:   5
 -----------------------
   1 S    6.380000
   2 S    1.460000
   2 S    2.380000
   2 P    1.120000
   2 P    2.580000

 Frozen Core Shells
 ------------------
    S:  1


 BAS: List of all Elementary Cartesian Basis Functions
 =====================================================

 The numbering in the list below (to the right of the function characteristics) is referred
 to in print-outs of MO eigenvectors and Mulliken populations in the BAS representation
 (as contrasted to the SFO representation).

 Notes:
 1. The functions are characterized by a polynomial prefactor (powers of x,y,z and r) and
    an exponential decay factor alpha.
 2. Since the basis sets are specific for an atom TYPE, the individual functions occur on
    all atoms of that type.
 3. The word 'Core' in the left margin signals that it is a Core Function (CF) : not a
    degree of freedom in the valence set, but only used to ensure orthogonalization of
    the other valence basis functions on the frozen Core Orbitals.


 (power of) X  Y  Z  R     Alpha  on Atom
            ==========     =====     ==========

 N                                    1
                                  ---------------------------------------------------------------------------
    Core    0  0  0  0     6.380      1
            0  0  0  1     1.460      2
            0  0  0  1     2.380      3
            1  0  0  0     1.120      4
            0  1  0  0     1.120      5
            0  0  1  0     1.120      6
            1  0  0  0     2.580      7
            0  1  0  0     2.580      8
            0  0  1  0     2.580      9

 Total number of charge fitting functions (nprimf)        82
 Total number of Cartesian basis functions (naos)          9
 Total number of Cartesian core functions  (ncos)          1



 BAS: List of all Elementary Cartesian Basis Functions
 =====================================================

 The numbering in the list below (to the right of the function characteristics) is referred
 to in print-outs of MO eigenvectors and Mulliken populations in the BAS representation
 (as contrasted to the SFO representation).

 Notes:
 1. The functions are characterized by a polynomial prefactor (powers of x,y,z and r) and
    an exponential decay factor alpha.
 2. Since the basis sets are specific for an atom TYPE, the individual functions occur on
    all atoms of that type.
 3. The word 'Core' in the left margin signals that it is a Core Function (CF) : not a
    degree of freedom in the valence set, but only used to ensure orthogonalization of
    the other valence basis functions on the frozen Core Orbitals.


 (power of) X  Y  Z  R     Alpha  on Atom
            ==========     =====     ==========

 N                                    1
                                  ---------------------------------------------------------------------------
    Core    0  0  0  0     6.380      1
            0  0  0  1     1.460      2
            0  0  0  1     2.380      3
            1  0  0  0     1.120      4
            0  1  0  0     1.120      5
            0  0  1  0     1.120      6
            1  0  0  0     2.580      7
            0  1  0  0     2.580      8
            0  0  1  0     2.580      9
1
 ***************************************************************************************************



                                              ***********************
                                              *  T E C H N I C A L  *
                                              ***********************
  



 =============================================================
 P A R A L L E L I Z A T I O N  and  V E C T O R I Z A T I O N
 =============================================================
  
 Nr of parallel processes:                                1
 Maximum vector length in NumInt loops:                 128



 =====================
 S C F   U P D A T E S
 =====================
  
 Max. nr. of cycles:                               300
 Convergence criterion:                              0.0000000100
   secondary criterion:                              0.0000000100

 Mix parameter (when DIIS does not apply):           0.2000000000
 Special mix parameter for the first cycle:          1.0000000000
 Mixed ADIIS+SDIIS will be used                  
    Max number of expansion vectors:                10
    Pure ADIIS when Max([F,P]) is above              0.1000000000
    Pure SDIIS when Max([F,P]) is below              0.0010000000
 Automatic ElectronSmearing (in case of problematic SCF convergence) disabled



 =================
 P R E C I S I O N  ***  (General: NumInt, NeglectFunctionTails, ...)  ***
 =================
  

 NumInt:           Target precision:                12.0000000000
 -------           Initial precision:               10.0000000000
                   Min. precision (optimization):   10.0000000000

 Neglect Functions:          Basis functions:        0.1000000000E-13
 ------------------          Fit functions:          0.1000000000E-13



 ===========================
 L I N E A R   S C A L I N G
 ===========================
  

 Cut-off radii density fit:                        0.1000000000E-97
 Overlap cut-off criterion AO matrix elements:     0.1000000000E-97
 Cut-offs for Coulomb potential and fitted density:0.1000000000E-97
 Cut-off criterion for Coulomb multipole terms:    0.1000000000E-97
 Progressive Convergence parameter:                 0.000000000    
1
 ***************************************************************************************************



                                            ***************************
                                            *  C O M P U T A T I O N  *
                                            ***************************
  

 Number of elements of the density matrix on this node (used, total):        45        45



 ===========================================
 Numerical Integration : Fuzzy Cells (Becke)
 ===========================================
  
 Becke grid quality: VERYGOOD       
  
 Lebedev angular grid order:             min:  13 max:  41
 Nr. of radial points:                   min:  68 max:  68

 Total nr. of points:         68
 Nr. of blocks:                1
 Block length:                68
 Nr. of dummy points:          0


 Test of Precision of the Numerical Integration Grid
 ===================================================

 Integral of the Total Core Density:                   2.00000004779027
 Relative Error:                                       2.390E-08



 ========================
 Density Fitting (zlmFit)
 ========================
  
 ZlmFit Fit Quality: VERYGOOD       
  
 Max L-expansion:                        min:   0 max:   0
 Nr. of radial interpolation points:     min: 150 max: 150



 =====
 S C F  ***  ScaSCF  ***
 =====
  

 CYCLE    1
 SCF Error: norm([F,P])=      0.000000000000, max([F,P])=      0.000000000000
 orbitals (Q,E):
 ---------------
 S :1...2            ( 2.00    -3.8308)  ( 0.00    -1.5342)
 P :1...2            ( 3.00    -3.5256)  ( 0.00    -1.4645)

 CYCLE    2
 SCF Error: norm([F,P])=      1.549673975551, max([F,P])=      1.258101921759
 orbitals (Q,E):
 ---------------
 S :1...2            ( 2.00    -0.1903)  ( 0.00     1.2168)
 P :1...2            ( 3.00     0.1546)  ( 0.00     1.2047)

 CYCLE    3
  SDIIS (wt  0.000):  0.4674  0.5326
 A-DIIS (wt  1.000):  0.3240  0.6760
  DIIS coefficients:  0.3240  0.6760
 SCF Error: norm([F,P])=      1.360249054281, max([F,P])=      1.048050156299
 orbitals (Q,E):
 ---------------
 S :1...2            ( 2.00    -0.8381)  ( 0.00     0.5861)
 P :1...2            ( 3.00    -0.4109)  ( 0.00     0.4817)

 CYCLE    4
  SDIIS (wt  0.000):  0.1928  0.8072
 A-DIIS (wt  1.000):  0.0000  1.0000
  DIIS coefficients:  0.0000  1.0000
 SCF Error: norm([F,P])=      0.325925918927, max([F,P])=      0.228226698732
 orbitals (Q,E):
 ---------------
 S :1...2            ( 2.00    -0.5797)  ( 0.00     0.7788)
 P :1...2            ( 3.00    -0.1643)  ( 0.00     0.6846)

 CYCLE    5
  SDIIS (wt  0.000):  0.4892  0.5108
 A-DIIS (wt  1.000):  0.4642  0.5358
  DIIS coefficients:  0.4642  0.5358
 SCF Error: norm([F,P])=      0.312119029167, max([F,P])=      0.221835145933
 orbitals (Q,E):
 ---------------
 S :1...2            ( 2.00    -0.6950)  ( 0.00     0.6844)
 P :1...2            ( 3.00    -0.2715)  ( 0.00     0.5814)

 CYCLE    6
  SDIIS (wt  0.928):  0.0359  0.9641
 A-DIIS (wt  0.072):  0.0000  1.0000
  DIIS coefficients:  0.0333  0.9667
 SCF Error: norm([F,P])=      0.011627935283, max([F,P])=      0.008114454643
 orbitals (Q,E):
 ---------------
 S :1...2            ( 2.00    -0.6895)  ( 0.00     0.6886)
 P :1...2            ( 3.00    -0.2663)  ( 0.00     0.5858)

 CYCLE    7
  SDIIS (wt  1.000):  0.0715  0.9285
  DIIS coefficients:  0.0715  0.9285
 SCF Error: norm([F,P])=      0.000895557034, max([F,P])=      0.000636506786
 orbitals (Q,E):
 ---------------
 S :1...2            ( 2.00    -0.6898)  ( 0.00     0.6884)
 P :1...2            ( 3.00    -0.2666)  ( 0.00     0.5855)

 CYCLE    8
  SDIIS (wt  1.000): -0.0084  1.0084
  DIIS coefficients: -0.0084  1.0084
 SCF Error: norm([F,P])=      0.000007431471, max([F,P])=      0.000005244833
 orbitals (Q,E):
 ---------------
 S :1...2            ( 2.00    -0.6898)  ( 0.00     0.6884)
 P :1...2            ( 3.00    -0.2666)  ( 0.00     0.5855)

 CYCLE    9
  SDIIS (wt  1.000):  0.0035  0.9965
  DIIS coefficients:  0.0035  0.9965
 SCF Error: norm([F,P])=      0.000000026230, max([F,P])=      0.000000018481
 orbitals (Q,E):
 ---------------
 S :1...2            ( 2.00    -0.6898)  ( 0.00     0.6884)
 P :1...2            ( 3.00    -0.2666)  ( 0.00     0.5855)

 CYCLE   10
  SDIIS (wt  1.000):  0.0008  0.9992
  DIIS coefficients:  0.0008  0.9992
 SCF Error: norm([F,P])=      0.000000000021, max([F,P])=      0.000000000015
 orbitals (Q,E):
 ---------------
 S :1...2            ( 2.00    -0.6898)  ( 0.00     0.6884)
 P :1...2            ( 3.00    -0.2666)  ( 0.00     0.5855)

 SCF CONVERGED

 CYCLE   11
1
 ***************************************************************************************************



                                                *******************
                                                *  R E S U L T S  *
                                                *******************
  
 *** Using FIT density in Focky
  SDIIS (wt  1.000):  0.0005  0.9995
  DIIS coefficients:  0.0005  0.9995
 SCF Error: norm([F,P])=      0.000000000000, max([F,P])=      0.000000000000

 Scaled ZORA Orbital Energies, per Irrep and Spin:
 =================================================
                        Occup              E (au)              E (eV)       Diff (eV) with prev. cycle
                        -----      --------------------        ------       --------------------------
 S
               1        2.000     -0.68979333234436E+00       -18.770               1.57E-13
               2        0.000      0.68835668824347E+00        18.731
 P
               1        3.000     -0.26655778219350E+00        -7.253               1.57E-13
               2        0.000      0.58549619457877E+00        15.932


 Partially Occupied:
               1 P                -0.26655778219350E+00
  
 HOMO :        1 S                -0.68979333234436E+00
 LUMO :        2 P                 0.58549619457877E+00
  


 Orbital Energies, all Irreps
 ========================================

 Irrep        no.  (spin)   Occup              E (au)                E (eV)
 ---------------------------------------------------------------------------
 S             1             2.00       -0.68979333234436E+00       -18.7702
 P             1             3.00       -0.26655778219350E+00        -7.2534
 P             2             0.00        0.58549619457877E+00        15.9322
 S             2             0.00        0.68835668824347E+00        18.7311


 Scaled ZORA Orbital Energies of the Core Orbitals:
 ==================================================

 (Note that the atoms are grouped by atomtype, see the labels, and may hence NOT be in input order)

 AtomType  Orbital  Atom                   E (au)                        E (eV)
 --------  -------  ----           --------------------        ----------------
 N           1S        1          -0.14166659762581E+02                -385.494



 =======================================
 M U L L I K E N   P O P U L A T I O N S
 =======================================
  
 The survey below gives for each atom:
 a) the total charge (Z minus electrons)
 b) the net spin polarization (nr of electrons spin-A minus spin-B)
 c) for each spin the atomic electron valence density (integrated) per L-value.

 Atom              Charge    Spin density          S         P         D         F
 ----              ------    ------------       ------    ------    ------    ------
 1 N              -0.0000                       2.0000    3.0000    0.0000    0.0000

 Populations of individual BAS functions
 ----------------------------------------
 1 N            0.0005  0.8702  1.1293  0.4947  0.4947  0.4947  0.5053  0.5053  0.5053

 Gross Charges per Atom (Z minus electrons)
 ==========================================
            -0.0000
 Net Total: -0.00000000



 =======================================================================
 Electrostatic potential at the Nuclei due to electrons and other nuclei
 =======================================================================
  
         Atom                  Potential
         ----                  ---------
     1)   N                  18.25311827
 
 
 ========================
 No memory problems found
 ========================
 
 Maximum number of active allocate calls:         319
 
 *******************************************************************************

                             A D F   E X I T
 NORMAL TERMINATION



 =================
 Timing Statistics
 =================
  
 Total Used :                     CPU=        0.66      System=        0.06     Elapsed=        0.98

 Calls  Section                     ( Mean, Percentage )
 ---------------------------------------------------------------------------------------------------
     3  ><      ................      0.00    1.03             0.00    3.56             0.00    1.26
     1  INIT    ................      0.09   14.12             0.01    9.33             0.11   11.47
     1  GEOMET  ................      0.03    4.64             0.01   14.19             0.07    7.02
     1  INPUTA  ................      0.01    1.05             0.00    0.12             0.01    1.14
     1  MAINSY  ................      0.02    3.24             0.00    3.01             0.04    4.56
     1  SYMFIT  ................      0.00    0.20             0.00    1.79             0.00    0.32
     1  CORORT  ................      0.00    0.13             0.00    1.48             0.00    0.45
     1  SYMORB  ................      0.00    0.07             0.00    1.25             0.00    0.24
     1  CLSMAT  ................      0.01    1.80             0.00    2.06             0.02    2.15
     1  ORTHON  ................      0.01    1.04             0.00    0.21             0.01    1.01
     1  GENPT   ................      0.02    2.58             0.01    8.24             0.03    3.54
     1  PTBAS   ................      0.01    1.43             0.00    3.00             0.02    1.93
    11  FOCKY   ................      0.03   51.64             0.00   28.60             0.04   43.17
    11  FOCKTR  ................      0.00    1.73             0.00    5.02             0.00    2.80
    11  SDIIS   ................      0.00    6.92             0.00    9.15             0.01    9.99
     1  COREPS  ................      0.02    3.39             0.00    3.46             0.03    3.25
     1  POPAN   ................      0.01    0.93             0.00    2.44             0.01    1.45
     1  DEBYE   ................      0.00    0.40             0.00    0.19             0.01    0.52
     1  EXIT PROCEDURE .........      0.02    3.66             0.00    2.90             0.04    3.72


 Currently Open Files (EXIT00)
 ====================

 Unit    Access Format  Status   Type       Ident (file)
 -------------------------------------------------------
   3      SEQ    FORM   TRANSP  NORMAL      LOGFILE
                                          ( logfile )

 ***************************************************************************************************
 (LOGFILE)
 <Feb04-2021> <20:23:22>  DIRAC 2019  RunTime: Feb04-2021 20:23:22  Nodes: 1  Procs: 1
 <Feb04-2021> <20:23:22>  NORMAL TERMINATION
 <Feb04-2021> <20:23:22>  END
 <Feb04-2021> <20:23:22>  ADF 2019  RunTime: Feb04-2021 20:23:22  Nodes: 1  Procs: 1
 <Feb04-2021> <20:23:22>  Hydrogen (DZ)
 <Feb04-2021> <20:23:22>  RunType   : CREATE
 <Feb04-2021> <20:23:22>  Net Charge: 0 (Nuclei minus Electrons)
 <Feb04-2021> <20:23:22>  Symmetry  : ATOM
  Coordinates
    Atom         X           Y           Z   (Angstrom)
    1.H         0.000000    0.000000    0.000000
 <Feb04-2021> <20:23:23>  >>>> CORORT
 <Feb04-2021> <20:23:23>  >>>> CLSMAT
 <Feb04-2021> <20:23:23>  >>>> ORTHON
 <Feb04-2021> <20:23:23>  >>>> GENPT
 <Feb04-2021> <20:23:23>  Block Length=  64
 <Feb04-2021> <20:23:23>  >>>> PTBAS
 <Feb04-2021> <20:23:23>  >>>> CYCLE
 <Feb04-2021> <20:23:23>              |Error|         MaxErr       Wt(A-DIIS)
 <Feb04-2021> <20:23:23>      1      0.00000000      0.00000000
 <Feb04-2021> <20:23:23>      2      0.03300193      0.03300193
 <Feb04-2021> <20:23:23>      3      0.00595445      0.00595445    100.0
 <Feb04-2021> <20:23:23>      4      0.00102040      0.00102040      0.0
 <Feb04-2021> <20:23:23>      5      0.00000144      0.00000144      0.0
 <Feb04-2021> <20:23:23>      6      0.00000000      0.00000000      0.0
 <Feb04-2021> <20:23:23>  SCF converged
 <Feb04-2021> <20:23:23>      7      0.00000000      0.00000000      0.0
 <Feb04-2021> <20:23:23>  >>>> POPAN
 <Feb04-2021> <20:23:23>  >>>> DEBYE
 <Feb04-2021> <20:23:23>  NORMAL TERMINATION
 <Feb04-2021> <20:23:23>  END
 <Feb04-2021> <20:23:23>  DIRAC 2019  RunTime: Feb04-2021 20:23:23  Nodes: 1  Procs: 1
 <Feb04-2021> <20:23:23>  NORMAL TERMINATION
 <Feb04-2021> <20:23:23>  END
 <Feb04-2021> <20:23:24>  ADF 2019  RunTime: Feb04-2021 20:23:24  Nodes: 1  Procs: 1
 <Feb04-2021> <20:23:24>  Nitrogen (DZ, 1s frozen)
 <Feb04-2021> <20:23:24>  RunType   : CREATE
 <Feb04-2021> <20:23:24>  Net Charge: 0 (Nuclei minus Electrons)
 <Feb04-2021> <20:23:24>  Symmetry  : ATOM
  Coordinates
    Atom         X           Y           Z   (Angstrom)
    1.N         0.000000    0.000000    0.000000
 <Feb04-2021> <20:23:24>  >>>> CORORT
 <Feb04-2021> <20:23:24>  >>>> CLSMAT
 <Feb04-2021> <20:23:24>  >>>> ORTHON
 <Feb04-2021> <20:23:24>  >>>> GENPT
 <Feb04-2021> <20:23:24>  Block Length=  68
 <Feb04-2021> <20:23:24>  >>>> PTBAS
 <Feb04-2021> <20:23:24>  >>>> CYCLE
 <Feb04-2021> <20:23:24>              |Error|         MaxErr       Wt(A-DIIS)
 <Feb04-2021> <20:23:24>      1      0.00000000      0.00000000
 <Feb04-2021> <20:23:24>      2      1.54967398      1.25810192
 <Feb04-2021> <20:23:24>      3      1.36024905      1.04805016    100.0
 <Feb04-2021> <20:23:24>      4      0.32592592      0.22822670    100.0
 <Feb04-2021> <20:23:24>      5      0.31211903      0.22183515    100.0
 <Feb04-2021> <20:23:24>      6      0.01162794      0.00811445      7.2
 <Feb04-2021> <20:23:24>      7      0.00089556      0.00063651      0.0
 <Feb04-2021> <20:23:24>      8      0.00000743      0.00000524      0.0
 <Feb04-2021> <20:23:24>      9      0.00000003      0.00000002      0.0
 <Feb04-2021> <20:23:24>     10      0.00000000      0.00000000      0.0
 <Feb04-2021> <20:23:24>  SCF converged
 <Feb04-2021> <20:23:24>     11      0.00000000      0.00000000      0.0
 <Feb04-2021> <20:23:25>  >>>> POPAN
 <Feb04-2021> <20:23:25>  >>>> DEBYE
 <Feb04-2021> <20:23:25>  NORMAL TERMINATION
 <Feb04-2021> <20:23:25>  END

 *******************************************************************************
 *                                                                             *
 *  -------------------------------------                                      *
 *   Amsterdam Density Functional  (ADF)         2019                          *
 *  -------------------------------------                                      *
 *                                               r74351 2019-04-25             *
 *                                                                             *
 *                                                                             *
 *                            =====================                            *
 *                            |                   |                            *
 *                            |     D I R A C     |                            *
 *                            |                   |                            *
 *                            =====================                            *
 *                                                                             *
 *                                                                             *
 *   Online information and documentation:  https://www.scm.com/support/       *
 *   E-mail:  support@scm.com   info@scm.com                                   *
 *                                                                             *
 *   Scientific publications using ADF results must be properly referenced     *
 *   See the User Manuals (or the web site) for recommended citations          *
 *   The terms and conditions of the End User License Agreement apply to       *
 *   the use of ADF, https://www.scm.com/license-terms/                        *
 *                                                                             *
 **********************  x86_64_linux_intel / intelmpi  ************************
 
 Licensed to: Dr. Emilie Guidez / UC Denver / Denver / CO / USA
 SCM User ID: u20218
  
 DIRAC 2019  RunTime: Feb04-2021 20:23:25  Nodes: 1  Procs: 1

 Temporary files are created in /home/chemistry/limjae/scr/kid_0.1735610179

1
 GOLD ATOM 4d CORE RELATIVISTIC, Point Nuc, A and c from libt
 N J RN H ZN XION ANUC CLIGHT
 5000   22100.00000000197.36710137 79.00000000  0.00000000  196.966551  0.1370360E+03
  PH   PHI     EPS        DEL        DELRVR
  0.30  0.30     2500.00  0.00001000  0.00001000
 IDIRC  NC1  NDEBU NPRIN  IPUN IRCOR IWCOR
   1   300     0     0     0     0    14
   XALPHA      XLATTER      RNUC
  0.70000000  0.00000000  0.00000000 Point Charge
   XN   XL   XJ      XE          XZ      XDELL
  1.0  0.0  0.5   -2600.000       2.000     0.00000
  2.0  0.0  0.5    -425.000       2.000     0.00000
  2.0  1.0  0.5    -425.000       2.000     0.00000
  2.0  1.0  1.5    -425.000       4.000     0.00000
  3.0  0.0  0.5    -100.000       2.000     0.00000
  3.0  1.0  0.5    -100.000       2.000     0.00000
  3.0  1.0  1.5    -100.000       4.000     0.00000
  3.0  2.0  1.5     -80.000       4.000     0.00000
  3.0  2.0  2.5     -80.000       6.000     0.00000
  4.0  0.0  0.5     -22.000       2.000     0.00000
  4.0  1.0  0.5     -20.000       2.000     0.00000
  4.0  1.0  1.5     -20.000       4.000     0.00000
  4.0  2.0  1.5     -11.000       4.000     0.00000
  4.0  2.0  2.5     -11.000       6.000     0.00000
  4.0  3.0  2.5      -1.000       6.000     0.00000
  4.0  3.0  3.5      -1.000       8.000     0.00000
  5.0  0.0  0.5      -3.000       2.000     0.00000
  5.0  1.0  0.5      -2.200       2.000     0.00000
  5.0  1.0  1.5      -2.200       4.000     0.00000
  5.0  2.0  1.5      -0.500       4.000     0.00000
  5.0  2.0  2.5      -0.500       6.000     0.00000
  6.0  0.0  0.5      -0.200       1.000     0.00000
 ICORP=  0  NPCL=  0  DEMP=0.00  PEPS=0.000000
 R(1)=  0.1000000E-08 D=  0.1005080E+01 RNUC=  0.0000000E+00
 converged at cycle   60  DENSITY AVERAGING    0.0786
  MAXIMUM ERROR IN R.V(R) IS   0.38523360E-05
 Q,EY,EV,EZ,ESUM,ETOT,RHO  0.790000E+02 -0.485545E+03 -0.336404E+05 -0.479937E+05 -0.117486E+05 -0.190466E+05  0.196298E-08


 DIRAC CALCULATION
1                    GOLD ATOM 4d CORE RELATIVISTIC, Point Nuc, A and c from libtc


 EXCHANGE COEFFICIENT=  0.7000000           TAIL CORRECTION=  0.           NUCLEAR RADIUS=  0.000E+00
0                       ORBITAL    N    L    J     ELECTRONS     EIGENVALUE                DELTA OF EIGENV.

                          1S1/2  1.0  0.0  0.5     2.000       -0.2963119E+04                 0.3731460E-04
                          2S1/2  2.0  0.0  0.5     2.000       -0.5226069E+03                 0.3102938E-04
                          2P1/2  2.0  1.0  0.5     2.000       -0.5013071E+03                 0.3249986E-04
                          2P3/2  2.0  1.0  1.5     4.000       -0.4338328E+03                 0.3150316E-04
                          3S1/2  3.0  0.0  0.5     2.000       -0.1233461E+03                 0.2017137E-04
                          3P1/2  3.0  1.0  0.5     2.000       -0.1137481E+03                 0.2099254E-04
                          3P3/2  3.0  1.0  1.5     4.000       -0.9885554E+02                 0.1984570E-04
                          3D3/2  3.0  2.0  1.5     4.000       -0.8287610E+02                 0.2174809E-04
                          3D5/2  3.0  2.0  2.5     6.000       -0.7967162E+02                 0.2135379E-04
                          4S1/2  4.0  0.0  0.5     2.000       -0.2673972E+02                 0.1054160E-04
                          4P1/2  4.0  1.0  0.5     2.000       -0.2264484E+02                 0.1056903E-04
                          4P3/2  4.0  1.0  1.5     4.000       -0.1906321E+02                 0.9669504E-05
                          4D3/2  4.0  2.0  1.5     4.000       -0.1235180E+02                 0.9615342E-05
                          4D5/2  4.0  2.0  2.5     6.000       -0.1168427E+02                 0.9341815E-05
                          4F5/2  4.0  3.0  2.5     6.000       -0.3062221E+01                 0.8653601E-05
                          4F7/2  4.0  3.0  3.5     8.000       -0.2921300E+01                 0.8510675E-05
                          5S1/2  5.0  0.0  0.5     2.000       -0.3963776E+01                 0.3355907E-05
                          5P1/2  5.0  1.0  0.5     2.000       -0.2629660E+01                 0.2984355E-05
                          5P3/2  5.0  1.0  1.5     4.000       -0.2015087E+01                 0.2530381E-05
                          5D3/2  5.0  2.0  1.5     4.000       -0.2662248E+00                 0.1434098E-05
                          5D5/2  5.0  2.0  2.5     6.000       -0.2094938E+00                 0.1305568E-05
                          6S1/2  6.0  0.0  0.5     1.000       -0.1940684E+00                 0.3484321E-06


                                        NUCLEAR CHARGE=   79.000000
                            INTEGRAL OF CHARGE DENSITY=   79.000000
                           SUM OF THE ORBITAL ENERGIES= -11748.5839
                                          TOTAL ENERGY= -19046.6065
                                        KINETIC ENERGY=  21891.8398
                             NUCLEAR ATTRACTION ENERGY= -47993.6963
                             ELECTRON REPULSION ENERGY=   7419.4090
                                       EXCHANGE ENERGY=   -364.1591

 *******************************************************************************

                             D I R A C   E X I T
 NORMAL TERMINATION



 =================
 Timing Statistics
 =================
  
 Total Used :                     CPU=        0.61      System=        0.02     Elapsed=        0.77

 Calls  Section                     ( Mean, Percentage )
 ---------------------------------------------------------------------------------------------------
     2  ><      ................      0.00    0.00             0.00    0.04             0.00    0.00
     1  EXIT PROCEDURE .........      0.61  100.00             0.02   99.96             0.77  100.00


 Currently Open Files (EXIT00)
 ====================

 Unit    Access Format  Status   Type       Ident (file)
 -------------------------------------------------------
   3      SEQ    FORM   TRANSP  NORMAL      LOGFILE
                                          ( logfile )
 
Create Au   file=DZ-Au.4d
XC
 GGA PBE
End
relativistic ZORA
Corepotentials t12.rel
End

 *******************************************************************************
 *                                                                             *
 *  -------------------------------------                                      *
 *   Amsterdam Density Functional  (ADF)         2019                          *
 *  -------------------------------------                                      *
 *                                               r74351 2019-04-25             *
 *                                                                             *
 *                                                                             *
 *                              =================                              *
 *                              |               |                              *
 *                              |     A D F     |                              *
 *                              |               |                              *
 *                              =================                              *
 *                                                                             *
 *                                                                             *
 *   Online information and documentation:  https://www.scm.com/support/       *
 *   E-mail:  support@scm.com   info@scm.com                                   *
 *                                                                             *
 *   Scientific publications using ADF results must be properly referenced     *
 *   See the User Manuals (or the web site) for recommended citations          *
 *   The terms and conditions of the End User License Agreement apply to       *
 *   the use of ADF, https://www.scm.com/license-terms/                        *
 *                                                                             *
 **********************  x86_64_linux_intel / intelmpi  ************************
 
 Licensed to: Dr. Emilie Guidez / UC Denver / Denver / CO / USA
 SCM User ID: u20218
  
 ADF 2019  RunTime: Feb04-2021 20:23:26  Nodes: 1  Procs: 1

 Temporary files are created in /home/chemistry/limjae/scr/kid_0.1746119908

 Gold (DZ, 4d frozen)



 ===========================
 A T T A C H E D   F I L E S
 ===========================
  
 CREATE - Data File:    DZ-Au.4d
                        Gold (DZ, 4d frozen)
 Core Potentials:
         file : t12.rel



 ===============================
 M O D E L   P A R A M E T E R S
 ===============================
  
 DENSITY FUNCTIONAL POTENTIAL (scf)
    LDA:                               PW92                                    == Not Default ==
    Gradient Corrections:              PBEc PBEx                               == Not Default ==

 SPIN  (restricted / unrestr.)
    Molecule:                          Restricted                               

 OTHER ASPECTS
    Relativistic Corrections:          scalar (ZORA,MAPA)                      == Not Default ==

    Nuclear Charge Density Model:      Point Charge Nuclei                      
    Core Treatment:                    Frozen Orbital(s)                        

    Hyperfine or Zeeman Interaction:   ---                                      



 =====================================
 S Y M M E T R Y ,   E L E C T R O N S
 =====================================
  
 Symmetry: ATOM

 Irreducible Representations, including subspecies
 -------------------------------------------------
 S
 P:x  P:y  P:z
 D:z2  D:x2-y2  D:xy  D:xz  D:yz
 F:z3  F:z  F:xyz  F:z2x  F:z2y  F:x  F:y


 Configuration of Valence Electrons
 ==================================

          Occupation Numbers
          -------------------------------------------------
 S        2 1
 P        6
 D        10
 F        14
          -------------------------------------------------

 Total:   33

 Net Charge: 0 (Nuclei minus Electrons)

 Preset values for MO occupations will be applied through SCF cycle no. 1000000
 Thereafter, the program will assign electrons to MOs that are spatially
 similar to the occupied MOs in a "reference" cycle ("KeepOrbitals").
 The reference cycle is always the PREVIOUS cycle: it will evolve with
 the SCF procedure.



 ================================
 (Slater-type)  F U N C T I O N S  ***  (Basis and Fit)  ***
 ================================
  

 Atom Type    1  (Au)
 ==============

 Valence Basis Sets:  21
 -----------------------
   1 S   57.000000
   2 S   36.650000
   3 S   21.050000
   4 S   12.400000
   2 P   39.650000
   3 P   17.950000
   4 P   12.550000
   3 D   22.100000
   4 D   11.200000
   5 S    7.000000
   5 S    4.600000
   6 S    2.850000
   6 S    1.510000
   5 P    6.000000
   5 P    3.700000
   5 D    4.350000
   5 D    2.000000
   4 F   16.150000
   4 F    8.900000
   4 F    4.900000
   6 P    1.950000

 Frozen Core Shells
 ------------------
    S:  4
    P:  3
    D:  2


 BAS: List of all Elementary Cartesian Basis Functions
 =====================================================

 The numbering in the list below (to the right of the function characteristics) is referred
 to in print-outs of MO eigenvectors and Mulliken populations in the BAS representation
 (as contrasted to the SFO representation).

 Notes:
 1. The functions are characterized by a polynomial prefactor (powers of x,y,z and r) and
    an exponential decay factor alpha.
 2. Since the basis sets are specific for an atom TYPE, the individual functions occur on
    all atoms of that type.
 3. The word 'Core' in the left margin signals that it is a Core Function (CF) : not a
    degree of freedom in the valence set, but only used to ensure orthogonalization of
    the other valence basis functions on the frozen Core Orbitals.


 (power of) X  Y  Z  R     Alpha  on Atom
            ==========     =====     ==========

 Au                                   1
                                  ---------------------------------------------------------------------------
    Core    0  0  0  0    57.000      1
    Core    0  0  0  1    36.650      2
    Core    0  0  0  2    21.050      3
    Core    0  0  0  3    12.400      4
    Core    1  0  0  0    39.650      5
    Core    0  1  0  0    39.650      6
    Core    0  0  1  0    39.650      7
    Core    1  0  0  1    17.950      8
    Core    0  1  0  1    17.950      9
    Core    0  0  1  1    17.950     10
    Core    1  0  0  2    12.550     11
    Core    0  1  0  2    12.550     12
    Core    0  0  1  2    12.550     13
    Core    2  0  0  0    22.100     14
    Core    1  1  0  0    22.100     15
    Core    1  0  1  0    22.100     16
    Core    0  2  0  0    22.100     17
    Core    0  1  1  0    22.100     18
    Core    0  0  2  0    22.100     19
    Core    2  0  0  1    11.200     20
    Core    1  1  0  1    11.200     21
    Core    1  0  1  1    11.200     22
    Core    0  2  0  1    11.200     23
    Core    0  1  1  1    11.200     24
    Core    0  0  2  1    11.200     25
            0  0  0  4     7.000     26
            0  0  0  4     4.600     27
            0  0  0  5     2.850     28
            0  0  0  5     1.510     29
            1  0  0  3     6.000     30
            0  1  0  3     6.000     31
            0  0  1  3     6.000     32
            1  0  0  3     3.700     33
            0  1  0  3     3.700     34
            0  0  1  3     3.700     35
            2  0  0  2     4.350     36
            1  1  0  2     4.350     37
            1  0  1  2     4.350     38
            0  2  0  2     4.350     39
            0  1  1  2     4.350     40
            0  0  2  2     4.350     41
            2  0  0  2     2.000     42
            1  1  0  2     2.000     43
            1  0  1  2     2.000     44
            0  2  0  2     2.000     45
            0  1  1  2     2.000     46
            0  0  2  2     2.000     47
            3  0  0  0    16.150     48
            2  1  0  0    16.150     49
            2  0  1  0    16.150     50
            1  2  0  0    16.150     51
            1  1  1  0    16.150     52
            1  0  2  0    16.150     53
            0  3  0  0    16.150     54
            0  2  1  0    16.150     55
            0  1  2  0    16.150     56
            0  0  3  0    16.150     57
            3  0  0  0     8.900     58
            2  1  0  0     8.900     59
            2  0  1  0     8.900     60
            1  2  0  0     8.900     61
            1  1  1  0     8.900     62
            1  0  2  0     8.900     63
            0  3  0  0     8.900     64
            0  2  1  0     8.900     65
            0  1  2  0     8.900     66
            0  0  3  0     8.900     67
            3  0  0  0     4.900     68
            2  1  0  0     4.900     69
            2  0  1  0     4.900     70
            1  2  0  0     4.900     71
            1  1  1  0     4.900     72
            1  0  2  0     4.900     73
            0  3  0  0     4.900     74
            0  2  1  0     4.900     75
            0  1  2  0     4.900     76
            0  0  3  0     4.900     77
            1  0  0  4     1.950     78
            0  1  0  4     1.950     79
            0  0  1  4     1.950     80

 Total number of charge fitting functions (nprimf)       327
 Total number of Cartesian basis functions (naos)         80
 Total number of Cartesian core functions  (ncos)         25



 BAS: List of all Elementary Cartesian Basis Functions
 =====================================================

 The numbering in the list below (to the right of the function characteristics) is referred
 to in print-outs of MO eigenvectors and Mulliken populations in the BAS representation
 (as contrasted to the SFO representation).

 Notes:
 1. The functions are characterized by a polynomial prefactor (powers of x,y,z and r) and
    an exponential decay factor alpha.
 2. Since the basis sets are specific for an atom TYPE, the individual functions occur on
    all atoms of that type.
 3. The word 'Core' in the left margin signals that it is a Core Function (CF) : not a
    degree of freedom in the valence set, but only used to ensure orthogonalization of
    the other valence basis functions on the frozen Core Orbitals.


 (power of) X  Y  Z  R     Alpha  on Atom
            ==========     =====     ==========

 Au                                   1
                                  ---------------------------------------------------------------------------
    Core    0  0  0  0    57.000      1
    Core    0  0  0  1    36.650      2
    Core    0  0  0  2    21.050      3
    Core    0  0  0  3    12.400      4
    Core    1  0  0  0    39.650      5
    Core    0  1  0  0    39.650      6
    Core    0  0  1  0    39.650      7
    Core    1  0  0  1    17.950      8
    Core    0  1  0  1    17.950      9
    Core    0  0  1  1    17.950     10
    Core    1  0  0  2    12.550     11
    Core    0  1  0  2    12.550     12
    Core    0  0  1  2    12.550     13
    Core    2  0  0  0    22.100     14
    Core    1  1  0  0    22.100     15
    Core    1  0  1  0    22.100     16
    Core    0  2  0  0    22.100     17
    Core    0  1  1  0    22.100     18
    Core    0  0  2  0    22.100     19
    Core    2  0  0  1    11.200     20
    Core    1  1  0  1    11.200     21
    Core    1  0  1  1    11.200     22
    Core    0  2  0  1    11.200     23
    Core    0  1  1  1    11.200     24
    Core    0  0  2  1    11.200     25
            0  0  0  4     7.000     26
            0  0  0  4     4.600     27
            0  0  0  5     2.850     28
            0  0  0  5     1.510     29
            1  0  0  3     6.000     30
            0  1  0  3     6.000     31
            0  0  1  3     6.000     32
            1  0  0  3     3.700     33
            0  1  0  3     3.700     34
            0  0  1  3     3.700     35
            2  0  0  2     4.350     36
            1  1  0  2     4.350     37
            1  0  1  2     4.350     38
            0  2  0  2     4.350     39
            0  1  1  2     4.350     40
            0  0  2  2     4.350     41
            2  0  0  2     2.000     42
            1  1  0  2     2.000     43
            1  0  1  2     2.000     44
            0  2  0  2     2.000     45
            0  1  1  2     2.000     46
            0  0  2  2     2.000     47
            3  0  0  0    16.150     48
            2  1  0  0    16.150     49
            2  0  1  0    16.150     50
            1  2  0  0    16.150     51
            1  1  1  0    16.150     52
            1  0  2  0    16.150     53
            0  3  0  0    16.150     54
            0  2  1  0    16.150     55
            0  1  2  0    16.150     56
            0  0  3  0    16.150     57
            3  0  0  0     8.900     58
            2  1  0  0     8.900     59
            2  0  1  0     8.900     60
            1  2  0  0     8.900     61
            1  1  1  0     8.900     62
            1  0  2  0     8.900     63
            0  3  0  0     8.900     64
            0  2  1  0     8.900     65
            0  1  2  0     8.900     66
            0  0  3  0     8.900     67
            3  0  0  0     4.900     68
            2  1  0  0     4.900     69
            2  0  1  0     4.900     70
            1  2  0  0     4.900     71
            1  1  1  0     4.900     72
            1  0  2  0     4.900     73
            0  3  0  0     4.900     74
            0  2  1  0     4.900     75
            0  1  2  0     4.900     76
            0  0  3  0     4.900     77
            1  0  0  4     1.950     78
            0  1  0  4     1.950     79
            0  0  1  4     1.950     80
1
 ***************************************************************************************************



                                              ***********************
                                              *  T E C H N I C A L  *
                                              ***********************
  



 =============================================================
 P A R A L L E L I Z A T I O N  and  V E C T O R I Z A T I O N
 =============================================================
  
 Nr of parallel processes:                                1
 Maximum vector length in NumInt loops:                 128



 =====================
 S C F   U P D A T E S
 =====================
  
 Max. nr. of cycles:                               300
 Convergence criterion:                              0.0000000100
   secondary criterion:                              0.0000000100

 Mix parameter (when DIIS does not apply):           0.2000000000
 Special mix parameter for the first cycle:          1.0000000000
 Mixed ADIIS+SDIIS will be used                  
    Max number of expansion vectors:                10
    Pure ADIIS when Max([F,P]) is above              0.1000000000
    Pure SDIIS when Max([F,P]) is below              0.0010000000
 Automatic ElectronSmearing (in case of problematic SCF convergence) disabled



 =================
 P R E C I S I O N  ***  (General: NumInt, NeglectFunctionTails, ...)  ***
 =================
  

 NumInt:           Target precision:                12.0000000000
 -------           Initial precision:               10.0000000000
                   Min. precision (optimization):   10.0000000000

 Neglect Functions:          Basis functions:        0.1000000000E-13
 ------------------          Fit functions:          0.1000000000E-13



 ===========================
 L I N E A R   S C A L I N G
 ===========================
  

 Cut-off radii density fit:                        0.1000000000E-97
 Overlap cut-off criterion AO matrix elements:     0.1000000000E-97
 Cut-offs for Coulomb potential and fitted density:0.1000000000E-97
 Cut-off criterion for Coulomb multipole terms:    0.1000000000E-97
 Progressive Convergence parameter:                 0.000000000    
1
 ***************************************************************************************************



                                            ***************************
                                            *  C O M P U T A T I O N  *
                                            ***************************
  

 Number of elements of the density matrix on this node (used, total):      3240      3240



 ===========================================
 Numerical Integration : Fuzzy Cells (Becke)
 ===========================================
  
 Becke grid quality: VERYGOOD       
  
 Lebedev angular grid order:             min:  13 max:  41
 Nr. of radial points:                   min: 123 max: 123

 Total nr. of points:        123
 Nr. of blocks:                1
 Block length:               123
 Nr. of dummy points:          0


 Test of Precision of the Numerical Integration Grid
 ===================================================

 Integral of the Total Core Density:                  45.99999991226612
 Relative Error:                                      -1.907E-09



 ========================
 Density Fitting (zlmFit)
 ========================
  
 ZlmFit Fit Quality: VERYGOOD       
  
 Max L-expansion:                        min:   0 max:   0
 Nr. of radial interpolation points:     min: 270 max: 270



 =====
 S C F  ***  ScaSCF  ***
 =====
  

 CYCLE    1
 SCF Error: norm([F,P])=      0.000000000000, max([F,P])=      0.000000000000
 orbitals (Q,E):
 ---------------
 S :1...4            ( 2.00   -36.7762)  ( 1.00   -21.6820)  ( 0.00   -12.9085)  ( 0.00    -7.1191)
 P :1...3            ( 6.00   -33.0866)  ( 0.00   -18.4007)  ( 0.00    -9.4584)
 D :1...2            (10.00   -25.1484)  ( 0.00   -11.3803)
[...]
 <Feb04-2021> <20:23:28>  >>>> PTBAS
 <Feb04-2021> <20:23:28>  >>>> CYCLE
 <Feb04-2021> <20:23:28>              |Error|         MaxErr       Wt(A-DIIS)
 <Feb04-2021> <20:23:28>      1      0.00000000      0.00000000
 <Feb04-2021> <20:23:28>      2      2.51022395      1.83694100
 <Feb04-2021> <20:23:28>      3      2.38195714      1.61935802    100.0
 <Feb04-2021> <20:23:29>      4      0.46758430      0.27634710    100.0
 <Feb04-2021> <20:23:29>      5      0.50410652      0.30498859    100.0
 <Feb04-2021> <20:23:29>      6      0.01247625      0.00764533      6.7
 <Feb04-2021> <20:23:29>      7      0.00085022      0.00051605      0.0
 <Feb04-2021> <20:23:29>      8      0.00000244      0.00000146      0.0
 <Feb04-2021> <20:23:29>      9      0.00000001      0.00000000      0.0
 <Feb04-2021> <20:23:29>  SCF converged
 <Feb04-2021> <20:23:29>     10      0.00000000      0.00000000      0.0
 <Feb04-2021> <20:23:29>  >>>> POPAN
 <Feb04-2021> <20:23:29>  >>>> DEBYE
 <Feb04-2021> <20:23:29>  NORMAL TERMINATION
 <Feb04-2021> <20:23:29>  END
 <Feb04-2021> <20:23:29>  DIRAC 2019  RunTime: Feb04-2021 20:23:29  Nodes: 1  Procs: 1
 <Feb04-2021> <20:23:29>  NORMAL TERMINATION
 <Feb04-2021> <20:23:29>  END
 <Feb04-2021> <20:23:29>  ADF 2019  RunTime: Feb04-2021 20:23:29  Nodes: 1  Procs: 1
 <Feb04-2021> <20:23:29>  Carbon (DZ, 1s frozen)
 <Feb04-2021> <20:23:29>  RunType   : CREATE
 <Feb04-2021> <20:23:30>  Net Charge: 0 (Nuclei minus Electrons)
 <Feb04-2021> <20:23:30>  Symmetry  : ATOM
  Coordinates
    Atom         X           Y           Z   (Angstrom)
    1.C         0.000000    0.000000    0.000000
 <Feb04-2021> <20:23:30>  >>>> CORORT
 <Feb04-2021> <20:23:30>  >>>> CLSMAT
 <Feb04-2021> <20:23:30>  >>>> ORTHON
 <Feb04-2021> <20:23:30>  >>>> GENPT
 <Feb04-2021> <20:23:30>  Block Length=  68
 <Feb04-2021> <20:23:30>  >>>> PTBAS
 <Feb04-2021> <20:23:30>  >>>> CYCLE
 <Feb04-2021> <20:23:30>              |Error|         MaxErr       Wt(A-DIIS)
 <Feb04-2021> <20:23:30>      1      0.00000000      0.00000000
 <Feb04-2021> <20:23:30>      2      0.96385221      0.85255436
 <Feb04-2021> <20:23:30>      3      0.69816270      0.60759186    100.0
 <Feb04-2021> <20:23:30>      4      0.25244702      0.20719292    100.0
 <Feb04-2021> <20:23:30>      5      0.19639955      0.16352478    100.0
 <Feb04-2021> <20:23:30>      6      0.03180040      0.02617408     25.4
 <Feb04-2021> <20:23:30>      7      0.00638036      0.00527666      4.3
 <Feb04-2021> <20:23:30>      8      0.00018258      0.00015050      0.0
 <Feb04-2021> <20:23:30>      9      0.00000052      0.00000043      0.0
 <Feb04-2021> <20:23:30>     10      0.00000000      0.00000000      0.0
 <Feb04-2021> <20:23:30>  SCF converged
 <Feb04-2021> <20:23:30>     11      0.00000000      0.00000000      0.0
 <Feb04-2021> <20:23:30>  >>>> POPAN
 <Feb04-2021> <20:23:30>  >>>> DEBYE
 <Feb04-2021> <20:23:30>  NORMAL TERMINATION
 <Feb04-2021> <20:23:30>  END
 <Feb04-2021> <20:23:30>  DIRAC 2019  RunTime: Feb04-2021 20:23:30  Nodes: 1  Procs: 1
 <Feb04-2021> <20:23:31>  NORMAL TERMINATION
 <Feb04-2021> <20:23:31>  END
 <Feb04-2021> <20:23:31>  ADF 2019  RunTime: Feb04-2021 20:23:31  Nodes: 1  Procs: 1
 <Feb04-2021> <20:23:31>  Sulphur (DZ, 1s frozen)
 <Feb04-2021> <20:23:31>  RunType   : CREATE
 <Feb04-2021> <20:23:31>  Net Charge: 0 (Nuclei minus Electrons)
 <Feb04-2021> <20:23:31>  Symmetry  : ATOM
  Coordinates
    Atom         X           Y           Z   (Angstrom)
    1.S         0.000000    0.000000    0.000000
 <Feb04-2021> <20:23:31>  >>>> CORORT
 <Feb04-2021> <20:23:31>  >>>> CLSMAT
 <Feb04-2021> <20:23:31>  >>>> ORTHON
 <Feb04-2021> <20:23:31>  >>>> GENPT
 <Feb04-2021> <20:23:31>  Block Length=  81
 <Feb04-2021> <20:23:31>  >>>> PTBAS
 <Feb04-2021> <20:23:31>  >>>> CYCLE
 <Feb04-2021> <20:23:31>              |Error|         MaxErr       Wt(A-DIIS)
 <Feb04-2021> <20:23:31>      1      0.00000000      0.00000000
 <Feb04-2021> <20:23:31>      2     21.51261243      7.94990220    100.0
 <Feb04-2021> <20:23:31>      3      8.52424195      2.62505450    100.0
 <Feb04-2021> <20:23:31>      4      4.38544525      1.60446246    100.0
 <Feb04-2021> <20:23:32>      5      1.43256362      0.55140611    100.0
 <Feb04-2021> <20:23:32>      6      0.89172576      0.34614537    100.0
 <Feb04-2021> <20:23:32>      7      0.16625992      0.07286926     72.6
 <Feb04-2021> <20:23:32>      8      0.10006764      0.04307754     42.5
 <Feb04-2021> <20:23:32>      9      0.01425650      0.00614423      5.2
 <Feb04-2021> <20:23:32>     10      0.00065307      0.00028041      0.0
 <Feb04-2021> <20:23:32>     11      0.00000094      0.00000039      0.0
 <Feb04-2021> <20:23:32>     12      0.00000001      0.00000000      0.0
 <Feb04-2021> <20:23:32>  SCF converged
 <Feb04-2021> <20:23:32>     13      0.00000000      0.00000000      0.0
 <Feb04-2021> <20:23:32>  >>>> POPAN
 <Feb04-2021> <20:23:32>  >>>> DEBYE
 <Feb04-2021> <20:23:32>  NORMAL TERMINATION
 <Feb04-2021> <20:23:32>  END
 <Feb04-2021> <20:23:33>  ADF 2019  RunTime: Feb04-2021 20:23:33  Nodes: 1  Procs: 1
 <Feb04-2021> <20:23:33>  Au25 + Thiol + CYST compounds.
 <Feb04-2021> <20:23:33>  RunType   : SINGLE POINT
 <Feb04-2021> <20:23:33>  WARNING: Restricted Open-Shell calculation, Unrestricted setup may be needed
 <Feb04-2021> <20:23:33>  Net Charge: 0 (Nuclei minus Electrons)
 <Feb04-2021> <20:23:33>  Symmetry  : NOSYM
 <Feb04-2021> <20:23:33>  >>>> FRAGM
  Coordinates
    Atom         X           Y           Z   (Angstrom)
    1.Au        9.755980   10.707540   10.348910
    2.Au        9.365880   10.636710   13.188360
    3.Au       12.105700   10.769670   11.975520
    4.Au       10.385160   13.029190   11.829000
    5.Au       10.538940    8.299160   11.679920
    6.Au        7.496370   12.083410   11.302020
    7.Au        7.649150    9.135070   11.477930
    8.Au       11.849440   12.246440    9.143900
    9.Au       12.058140    9.310470    9.445150
   10.Au        8.924710   13.048880    8.967820
   11.Au        7.367330   10.511190    8.791040
   12.Au        9.201940    8.315280    8.934820
   13.Au       10.118900   10.735120    7.512830
   14.Au        6.387020   10.631810   13.801290
   15.Au        8.450150    7.915380   14.167130
   16.Au       10.792440   13.378660    6.324420
   17.Au       13.035690   10.855560    6.723060
   18.Au       13.439930    7.692430   11.676940
   19.Au       11.391110    6.397070    9.572240
   20.Au        8.204020   14.990260   11.070740
   21.Au        5.905110   13.294860    9.023910
   22.Au       13.323010   13.482120   11.654280
   23.Au       11.784690   12.268370   14.521530
   24.Au        6.285010    7.668680    9.103090
   25.Au        7.856010    8.874200    6.332650
   26.S         9.942400    6.305630   13.115130
   27.S         6.983950    9.161360   15.667840
   28.S         5.298540   12.458700   12.573110
   29.S        14.282810    9.317320    8.165250
   30.S         9.222090   14.966360    7.316500
   31.S        12.232450   12.135610    4.784670
   32.S         9.913140    6.269690    7.576150
   33.S        14.246670    9.698980   12.846870
   34.S        13.098780    5.339070   11.020830
   35.S         5.333340   11.457550    7.525770
   36.S        10.351590   15.560190   12.204490
   37.S         5.876040   15.348110   10.344490
   38.S         9.938800   11.122010   15.633090
   39.S        13.467260   14.187100    9.315950
   40.S        13.950270   13.291540   14.010780
   41.S         9.686160    9.929460    5.096970
   42.S         6.284000    6.983910   11.454780
   43.S         5.613430    7.967030    6.775070
   44.C         8.708720    4.792940    7.911480
   45.C         8.727200    3.842300    6.685220
   46.H         7.709220    5.222110    8.070060
   47.H         9.033340    4.276020    8.826560
   48.N         7.664960    2.846400    6.730070
   49.H         9.714240    3.348320    6.627260
   50.H         8.604680    4.433870    5.760770
   51.C        14.503750    4.987380    9.724510
   52.C        13.951580    4.388990    8.408620
   53.H        15.190050    4.289450   10.231820
   54.H        15.029060    5.928280    9.524860
   55.N        14.967990    4.379680    7.363630
   56.H        13.102310    5.013820    8.077230
   57.H        13.538850    3.381540    8.615660
   58.C        15.545940   10.301740   11.559710
   59.C        16.534410    9.183340   11.192470
   60.H        16.068110   11.157250   12.012270
   61.H        14.998600   10.624680   10.667240
   62.N        17.410350    9.655380   10.110780
   63.H        15.950430    8.275460   10.924180
   64.H        17.152150    8.930660   12.070260
   65.C         6.153590   12.006730    5.855810
   66.C         5.644520   11.088830    4.730280
   67.H         7.240520   11.922950    5.983600
   68.H         5.886480   13.059810    5.686470
   69.N         6.572180   11.021920    3.564700
   70.H         4.659270   11.417940    4.364380
   71.H         5.538140   10.055160    5.086300
   72.C         6.034570   16.696240    8.968960
   73.C         4.712890   16.837550    8.187390
   74.H         6.852130   16.398320    8.298230
   75.H         6.293230   17.632740    9.487790
   76.N         4.773030   17.880780    7.158470
   77.H         3.886970   17.072740    8.879310
   78.H         4.471780   15.874460    7.705490
   79.C         9.640040   15.805820   13.980320
   80.C         8.456040   16.789870   13.993140
   81.H        10.468010   16.183370   14.599920
   82.H         9.330030   14.822430   14.348280
   83.N         7.842520   16.814570   15.340670
   84.H         7.729850   16.474820   13.217100
   85.H         8.814910   17.794670   13.711590
   86.C         5.754110   13.906790   13.770160
   87.C         5.217390   13.676080   15.190780
   88.H         5.314630   14.811250   13.324410
   89.H         6.846470   14.002620   13.780790
   90.N         5.701160   14.760800   16.082980
   91.H         5.545670   12.677340   15.539550
   92.H         4.114330   13.668280   15.164540
   93.C         5.451990    8.007690   15.893620
   94.C         5.820810    6.792100   16.768590
   95.N         4.683460    5.913790   17.032870
   96.H         6.236920    7.141070   17.729340
   97.H         6.612090    6.211080   16.264620
   98.H         5.106650    7.687280   14.903230
   99.H         4.678530    8.626370   16.376200
  100.C        11.376630    6.223990   14.408330
  101.C        11.688070    7.570570   15.093890
  102.H        12.257200    5.862010   13.859170
  103.H        11.065950    5.471950   15.151770
  104.N        12.833270    7.457080   15.979620
  105.H        10.796450    7.908920   15.652810
  106.H        11.879730    8.329380   14.314840
  107.C        10.976300    8.516820    4.943720
  108.C        10.488990    7.363790    4.059060
  109.H        11.173680    8.157970    5.959370
  110.H        11.880380    8.983290    4.528270
  111.N        11.451440    6.233440    4.214640
  112.H        10.480770    7.676980    3.002570
  113.H         9.454590    7.093280    4.347070
  114.C         5.735820    6.233720    5.958320
  115.C         4.722280    5.277190    6.588620
  116.H         6.756120    5.852990    6.071770
  117.H         5.528140    6.428740    4.893510
  118.N         4.905910    3.919240    6.000730
  119.H         3.701200    5.688320    6.457710
  120.H         4.922260    5.198390    7.670320
  121.C         4.486610    7.518650   11.943260
  122.C         3.430100    6.971020   10.963240
  123.H         4.450600    8.615590   11.994220
  124.H         4.332400    7.099730   12.949350
  125.N         2.058550    7.295160   11.355060
  126.H         3.530100    5.875020   10.883450
  127.H         3.623100    7.388340    9.959160
  128.C        14.184500    7.685160    7.155090
  129.C        14.733260    7.806380    5.730830
  130.H        13.134150    7.370330    7.138380
  131.H        14.777670    6.954770    7.716840
  132.N        14.482020    6.503940    5.056260
  133.H        15.820160    7.990980    5.765950
  134.H        14.259650    8.671070    5.221570
  135.C        13.770740   13.237290    4.365540
  136.C        15.003790   12.352910    4.043690
  137.H        13.973200   13.889690    5.222360
  138.H        13.466870   13.849110    3.500040
  139.N        16.261000   13.082320    4.059720
  140.H        14.852000   11.860060    3.066200
  141.H        15.064180   11.549980    4.801440
  142.C        10.448650   16.197900    8.187710
  143.C         9.683610   17.371320    8.825060
  144.H        11.004000   15.635840    8.947200
  145.H        11.142930   16.545580    7.406630
  146.N        10.552440   18.260650    9.606910
  147.H         8.918190   16.970250    9.512040
  148.H         9.166190   17.960510    8.048540
  149.C         8.747340   12.551180   16.115350
  150.C         9.416670   13.545790   17.075140
  151.H         7.889860   12.064210   16.601840
  152.H         8.413030   13.046370   15.196630
  153.N         8.459040   14.630350   17.406030
  154.H        10.348470   13.923040   16.610150
  155.H         9.705300   13.015020   17.997730
  156.C        13.714560   15.129270   14.555830
  157.C        13.443210   15.229390   16.067880
  158.H        14.659200   15.628290   14.284550
  159.H        12.889190   15.552850   13.964140
  160.N        14.477550   14.703470   16.956570
  161.H        12.501960   14.701540   16.295860
  162.H        13.285920   16.299510   16.306770
  163.C        15.267400   13.564760    8.960870
  164.C        15.523460   13.535040    7.450350
  165.H        15.401200   12.570650    9.406420
  166.H        15.926890   14.287010    9.467970
  167.N        16.911630   13.173430    7.078380
  168.H        15.295330   14.519010    7.009700
  169.H        14.848110   12.789600    6.998400
  170.H         4.369680    5.289320   16.291430
  171.H         3.973750    6.221630   17.696230
  172.H         6.533560   14.506580   16.656350
  173.H         4.960110   15.195340   16.643870
  174.H        13.759200    7.699420   15.638740
  175.H        12.702740    7.334120   16.978890
  176.H         8.495920   15.445900   16.758830
  177.H         8.488880   14.916030   18.391570
  178.H        14.554500   13.685340   17.005860
  179.H        15.373850   15.195520   16.956840
  180.H        17.613750   13.846820    7.413220
  181.H        17.163420   12.214950    7.353420
  182.H        16.995010    9.616600    9.177210
  183.H        18.393050    9.381680   10.157640
  184.H        14.841520    4.990900    6.539520
  185.H        15.557940    3.555330    7.265250
  186.H         7.747230    2.112520    7.436500
  187.H         6.707400    3.166540    6.483430
  188.H        11.459920    5.599530    3.404540
  189.H        11.273610    5.714320    5.086250
  190.H         4.790560    3.915680    4.977220
  191.H         4.285110    3.219030    6.430880
  192.H         1.760400    8.267320   11.262850
  193.H         1.651590    6.782960   12.138480
  194.H         6.547310   11.839170    2.936570
  195.H         7.544120   10.802200    3.845620
  196.H         4.760230   18.851310    7.477630
  197.H         5.375540   17.701430    6.352630
  198.H         6.977860   16.238350   15.427220
  199.H         7.733420   17.755240   15.734040
  200.H        11.254930   18.783890    9.075790
  201.H        10.902740   17.853510   10.480170
  202.H        16.472560   13.717750    3.292160
  203.H        16.695300   13.243620    4.981990
  204.H        15.161500    6.303510    4.310820
  205.H        13.502660    6.433120    4.707370
  206.C         6.165910    9.458360    2.387220
  207.O         5.677750    8.599800    3.120600
  208.O         6.545910    9.810310    1.270050
 <Feb04-2021> <20:23:34>  >>>> CORORT
 <Feb04-2021> <20:23:42>  >>>> CLSMAT
 <Feb04-2021> <20:23:46>  >>>> ORTHON
 <Feb04-2021> <20:23:55>  >>>> GENPT
 <Feb04-2021> <20:24:05>  Block Length= 128
 <Feb04-2021> <20:24:38>  >>>> PTBAS
 <Feb04-2021> <20:28:42>  >>>> CYCLE
 <Feb04-2021> <20:31:23>              |Error|         MaxErr       Wt(A-DIIS)
 <Feb04-2021> <20:31:23>      1      8.13612205      0.40735550
 <Feb04-2021> <20:33:24>      2      4.75919144      0.36942880    100.0
 <Feb04-2021> <20:35:24>      3     13.69272772      0.67085469    100.0
 <Feb04-2021> <20:39:50>      4      4.30849654      0.37069533    100.0
 <Feb04-2021> <20:48:10>      5      7.12443698      0.41199680    100.0
 <Feb04-2021> <20:57:02>      6      1.97256331      0.17324508    100.0
 <Feb04-2021> <21:06:22>      7     16.60344761      1.36852630    100.0
 <Feb04-2021> <21:15:30>      8      7.39764726      0.54064212    100.0
 <Feb04-2021> <21:24:25>      9      5.83685987      0.48661182    100.0
 <Feb04-2021> <21:33:12>     10      1.80915244      0.21793142    100.0
 <Feb04-2021> <21:41:59>     11      2.58072556      0.44910861    100.0
 <Feb04-2021> <21:50:50>     12      0.77608882      0.14194044    100.0
 <Feb04-2021> <21:59:37>     13      1.06871964      0.22621940    100.0
 <Feb04-2021> <22:08:25>     14      1.07217728      0.17357347    100.0
 <Feb04-2021> <22:17:14>     15      0.56946323      0.03615240     35.5
 <Feb04-2021> <22:26:02>     16      0.37253712      0.04024795     35.5
 <Feb04-2021> <22:34:48>     17      0.56455103      0.12802439    100.0
 <Feb04-2021> <22:43:36>     18      0.67965546      0.15759357    100.0
 <Feb04-2021> <22:52:22>     19      0.49157526      0.12156897    100.0
 <Feb04-2021> <23:01:11>     20      0.16792382      0.01475427     13.9
 <Feb04-2021> <23:10:01>     21      0.12007693      0.01432788     13.5
 <Feb04-2021> <23:18:49>     22      0.07178898      0.00492805      4.0
 <Feb04-2021> <23:27:35>     23      0.02414669      0.00279746      1.8
 <Feb04-2021> <23:36:23>     24      0.02029762      0.00237455      1.4
 <Feb04-2021> <23:45:13>     25      0.01447279      0.00206565      1.1
 <Feb04-2021> <23:53:59>     26      0.00856676      0.00137264      0.4
 <Feb05-2021> <00:02:47>     27      0.00635769      0.00125175      0.3
 <Feb05-2021> <00:11:40>     28      0.00843321      0.00195274    100.0
 <Feb05-2021> <00:20:29>     29      0.01796728      0.00413851    100.0
 <Feb05-2021> <00:29:18>     30      0.00579219      0.00144215      0.4
 <Feb05-2021> <00:38:08>     31      0.00084925      0.00008866      0.0
 <Feb05-2021> <00:46:56>     32      0.00085774      0.00007143      0.0
 <Feb05-2021> <00:55:43>     33      0.00041147      0.00003014      0.0
 <Feb05-2021> <01:04:34>     34      0.00019801      0.00001348      0.0
 <Feb05-2021> <01:13:26>     35      0.00015633      0.00000958      0.0
 <Feb05-2021> <01:22:18>     36      0.00005110      0.00000632      0.0
 <Feb05-2021> <01:31:10>     37      0.00005686      0.00000702      0.0
 <Feb05-2021> <01:40:02>     38      0.00003887      0.00000371      0.0
 <Feb05-2021> <01:48:52>     39      0.00000891      0.00000109      0.0
 <Feb05-2021> <01:57:44>     40      0.00000390      0.00000039      0.0
 <Feb05-2021> <01:59:48>  SCF converged
 <Feb05-2021> <02:06:38>     41      0.00000256      0.00000027      0.0
 <Feb05-2021> <02:06:52>  WARNING: partially occupied orbitals
 <Feb05-2021> <02:06:52>   Solutions with partially occupied orbitals may not be
 <Feb05-2021> <02:06:52>   lowest in energy. You might consider lowering the
 <Feb05-2021> <02:06:52>   symmetry in the input and explicitly specifying integer
 <Feb05-2021> <02:06:52>   occupations. In that case always check that you obtain
 <Feb05-2021> <02:06:52>   an aufbau solution.
 <Feb05-2021> <02:13:10>  >>>> TOTEN
 <Feb05-2021> <03:48:27>  >>>> POPAN
 <Feb05-2021> <03:48:32>  >>>> DEBYE
 <Feb05-2021> <03:48:56>  >>>> AMETS
 <Feb05-2021> <03:49:27>   Bond Energy         -36.86148685 a.u.
 <Feb05-2021> <03:49:27>   Bond Energy       -1003.05209276 eV
 <Feb05-2021> <03:49:27>   Bond Energy      -23130.93       kcal/mol
 <Feb05-2021> <03:49:27>  >>>> POPUL
 <Feb05-2021> <03:50:06>  NORMAL TERMINATION with warnings
 <Feb05-2021> <03:50:08>  END
