
 *******************************************************************************
 *                                                                             *
 *  -------------------------------------                                      *
 *   Amsterdam Density Functional  (ADF)         2019                          *
 *  -------------------------------------                                      *
 *                                               r74351 2019-04-25             *
 *                                                                             *
 *                                                                             *
 *                            =====================                            *
 *                            |                   |                            *
 *                            |     D I R A C     |                            *
 *                            |                   |                            *
 *                            =====================                            *
 *                                                                             *
 *                                                                             *
 *   Online information and documentation:  https://www.scm.com/support/       *
 *   E-mail:  support@scm.com   info@scm.com                                   *
 *                                                                             *
 *   Scientific publications using ADF results must be properly referenced     *
 *   See the User Manuals (or the web site) for recommended citations          *
 *   The terms and conditions of the End User License Agreement apply to       *
 *   the use of ADF, https://www.scm.com/license-terms/                        *
 *                                                                             *
 **********************  x86_64_linux_intel / intelmpi  ************************
 
 Licensed to: Dr. Emilie Guidez / UC Denver / Denver / CO / USA
 SCM User ID: u20218
  
 DIRAC 2019  RunTime: Feb04-2021 20:26:22  Nodes: 1  Procs: 1

 Temporary files are created in /home/chemistry/limjae/scr/kid_0.1530580956

1
 HYDROGEN ATOM RELATIVISTIC, Point Nuc, A and c from libtc   
 N J RN H ZN XION ANUC CLIGHT
 5000    1100.00000000197.36710137  1.00000000  0.00000000    1.007825  0.1370360E+03
  PH   PHI     EPS        DEL        DELRVR
  0.30  0.30     2500.00  0.00001000  0.00001000
 IDIRC  NC1  NDEBU NPRIN  IPUN IRCOR IWCOR
   1   300     0     0     0     0     0
   XALPHA      XLATTER      RNUC
  0.70000000  0.00000000  0.00000000 Point Charge
   XN   XL   XJ      XE          XZ      XDELL
  1.0  0.0  0.5      -1.000       1.000     0.00000
 ICORP=  0  NPCL=  0  DEMP=0.00  PEPS=0.000000
 R(1)=  0.1000000E-08 D=  0.1005080E+01 RNUC=  0.0000000E+00
 converged at cycle   32  DENSITY AVERAGING    0.2400
  MAXIMUM ERROR IN R.V(R) IS   0.79874357E-05
 Q,EY,EV,EZ,ESUM,ETOT,RHO  0.100000E+01 -0.266614E+00 -0.619969E+00 -0.910779E+00 -0.203940E+00 -0.415998E+00  0.337036E-17


 DIRAC CALCULATION
1                    HYDROGEN ATOM RELATIVISTIC, Point Nuc, A and c from libtc


 EXCHANGE COEFFICIENT=  0.7000000           TAIL CORRECTION=  0.           NUCLEAR RADIUS=  0.000E+00
0                       ORBITAL    N    L    J     ELECTRONS     EIGENVALUE                DELTA OF EIGENV.

                          1S1/2  1.0  0.0  0.5     1.000       -0.2039397E+00                 0.2720093E-06


                                        NUCLEAR CHARGE=    1.000000
                            INTEGRAL OF CHARGE DENSITY=    1.000000
                           SUM OF THE ORBITAL ENERGIES=     -0.2039
                                          TOTAL ENERGY=     -0.4160
                                        KINETIC ENERGY=      0.4160
                             NUCLEAR ATTRACTION ENERGY=     -0.9108
                             ELECTRON REPULSION ENERGY=      0.2787
                                       EXCHANGE ENERGY=     -0.2000

 *******************************************************************************

                             D I R A C   E X I T
 NORMAL TERMINATION



 =================
 Timing Statistics
 =================
  
 Total Used :                     CPU=        0.06      System=        0.01     Elapsed=        0.12

 Calls  Section                     ( Mean, Percentage )
 ---------------------------------------------------------------------------------------------------
     2  ><      ................      0.00    0.01             0.00    0.13             0.00    0.01
     1  EXIT PROCEDURE .........      0.06   99.99             0.01   99.87             0.12   99.99


 Currently Open Files (EXIT00)
 ====================

 Unit    Access Format  Status   Type       Ident (file)
 -------------------------------------------------------
   3      SEQ    FORM   TRANSP  NORMAL      LOGFILE
                                          ( logfile )
 
Create H   file=DZ-H
XC
 GGA PBE
End
relativistic ZORA
Corepotentials t12.rel
End

 *******************************************************************************
 *                                                                             *
 *  -------------------------------------                                      *
 *   Amsterdam Density Functional  (ADF)         2019                          *
 *  -------------------------------------                                      *
 *                                               r74351 2019-04-25             *
 *                                                                             *
 *                                                                             *
 *                              =================                              *
 *                              |               |                              *
 *                              |     A D F     |                              *
 *                              |               |                              *
 *                              =================                              *
 *                                                                             *
 *                                                                             *
 *   Online information and documentation:  https://www.scm.com/support/       *
 *   E-mail:  support@scm.com   info@scm.com                                   *
 *                                                                             *
 *   Scientific publications using ADF results must be properly referenced     *
 *   See the User Manuals (or the web site) for recommended citations          *
 *   The terms and conditions of the End User License Agreement apply to       *
 *   the use of ADF, https://www.scm.com/license-terms/                        *
 *                                                                             *
 **********************  x86_64_linux_intel / intelmpi  ************************
 
 Licensed to: Dr. Emilie Guidez / UC Denver / Denver / CO / USA
 SCM User ID: u20218
  
 ADF 2019  RunTime: Feb04-2021 20:26:22  Nodes: 1  Procs: 1

 Temporary files are created in /home/chemistry/limjae/scr/kid_0.1571211855

 Hydrogen (DZ)



 ===========================
 A T T A C H E D   F I L E S
 ===========================
  
 CREATE - Data File:    DZ-H
                        Hydrogen (DZ)
 Core Potentials:
         file : t12.rel



 ===============================
 M O D E L   P A R A M E T E R S
 ===============================
  
 DENSITY FUNCTIONAL POTENTIAL (scf)
    LDA:                               PW92                                    == Not Default ==
    Gradient Corrections:              PBEc PBEx                               == Not Default ==

 SPIN  (restricted / unrestr.)
    Molecule:                          Restricted                               

 OTHER ASPECTS
    Relativistic Corrections:          scalar (ZORA,MAPA)                      == Not Default ==

    Nuclear Charge Density Model:      Point Charge Nuclei                      
    Core Treatment:                    Frozen Orbital(s)                        

    Hyperfine or Zeeman Interaction:   ---                                      



 =====================================
 S Y M M E T R Y ,   E L E C T R O N S
 =====================================
  
 Symmetry: ATOM

 Irreducible Representations, including subspecies
 -------------------------------------------------
 S
 P:x  P:y  P:z
 D:z2  D:x2-y2  D:xy  D:xz  D:yz
 F:z3  F:z  F:xyz  F:z2x  F:z2y  F:x  F:y


 Configuration of Valence Electrons
 ==================================

          Occupation Numbers
          -------------------------------------------------
 S        1
 P        0
 D        0
 F        0
          -------------------------------------------------

 Total:   1

 Net Charge: 0 (Nuclei minus Electrons)

 Preset values for MO occupations will be applied through SCF cycle no. 1000000
 Thereafter, the program will assign electrons to MOs that are spatially
 similar to the occupied MOs in a "reference" cycle ("KeepOrbitals").
 The reference cycle is always the PREVIOUS cycle: it will evolve with
 the SCF procedure.



 ================================
 (Slater-type)  F U N C T I O N S  ***  (Basis and Fit)  ***
 ================================
  

 Atom Type    1  (H)
 ==============

 Valence Basis Sets:   2
 -----------------------
   1 S    0.760000
   1 S    1.280000


 BAS: List of all Elementary Cartesian Basis Functions
 =====================================================

 The numbering in the list below (to the right of the function characteristics) is referred
 to in print-outs of MO eigenvectors and Mulliken populations in the BAS representation
 (as contrasted to the SFO representation).

 Notes:
 1. The functions are characterized by a polynomial prefactor (powers of x,y,z and r) and
    an exponential decay factor alpha.
 2. Since the basis sets are specific for an atom TYPE, the individual functions occur on
    all atoms of that type.
 3. The word 'Core' in the left margin signals that it is a Core Function (CF) : not a
    degree of freedom in the valence set, but only used to ensure orthogonalization of
    the other valence basis functions on the frozen Core Orbitals.


 (power of) X  Y  Z  R     Alpha  on Atom
            ==========     =====     ==========

 H                                    1
                                  ---------------------------------------------------------------------------
            0  0  0  0     0.760      1
            0  0  0  0     1.280      2

 Total number of charge fitting functions (nprimf)        50
 Total number of Cartesian basis functions (naos)          2
 Total number of Cartesian core functions  (ncos)          0



 BAS: List of all Elementary Cartesian Basis Functions
 =====================================================

 The numbering in the list below (to the right of the function characteristics) is referred
 to in print-outs of MO eigenvectors and Mulliken populations in the BAS representation
 (as contrasted to the SFO representation).

 Notes:
 1. The functions are characterized by a polynomial prefactor (powers of x,y,z and r) and
    an exponential decay factor alpha.
 2. Since the basis sets are specific for an atom TYPE, the individual functions occur on
    all atoms of that type.
 3. The word 'Core' in the left margin signals that it is a Core Function (CF) : not a
    degree of freedom in the valence set, but only used to ensure orthogonalization of
    the other valence basis functions on the frozen Core Orbitals.


 (power of) X  Y  Z  R     Alpha  on Atom
            ==========     =====     ==========

 H                                    1
                                  ---------------------------------------------------------------------------
            0  0  0  0     0.760      1
            0  0  0  0     1.280      2
1
 ***************************************************************************************************



                                              ***********************
                                              *  T E C H N I C A L  *
                                              ***********************
  



 =============================================================
 P A R A L L E L I Z A T I O N  and  V E C T O R I Z A T I O N
 =============================================================
  
 Nr of parallel processes:                                1
 Maximum vector length in NumInt loops:                 128



 =====================
 S C F   U P D A T E S
 =====================
  
 Max. nr. of cycles:                               300
 Convergence criterion:                              0.0000000100
   secondary criterion:                              0.0000000100

 Mix parameter (when DIIS does not apply):           0.2000000000
 Special mix parameter for the first cycle:          1.0000000000
 Mixed ADIIS+SDIIS will be used                  
    Max number of expansion vectors:                10
    Pure ADIIS when Max([F,P]) is above              0.1000000000
    Pure SDIIS when Max([F,P]) is below              0.0010000000
 Automatic ElectronSmearing (in case of problematic SCF convergence) disabled



 =================
 P R E C I S I O N  ***  (General: NumInt, NeglectFunctionTails, ...)  ***
 =================
  

 NumInt:           Target precision:                12.0000000000
 -------           Initial precision:               10.0000000000
                   Min. precision (optimization):   10.0000000000

 Neglect Functions:          Basis functions:        0.1000000000E-13
 ------------------          Fit functions:          0.1000000000E-13



 ===========================
 L I N E A R   S C A L I N G
 ===========================
  

 Cut-off radii density fit:                        0.1000000000E-97
 Overlap cut-off criterion AO matrix elements:     0.1000000000E-97
 Cut-offs for Coulomb potential and fitted density:0.1000000000E-97
 Cut-off criterion for Coulomb multipole terms:    0.1000000000E-97
 Progressive Convergence parameter:                 0.000000000    
1
 ***************************************************************************************************



                                            ***************************
                                            *  C O M P U T A T I O N  *
                                            ***************************
  

 Number of elements of the density matrix on this node (used, total):         3         3



 ===========================================
 Numerical Integration : Fuzzy Cells (Becke)
 ===========================================
  
 Becke grid quality: VERYGOOD       
  
 Lebedev angular grid order:             min:  13 max:  41
 Nr. of radial points:                   min:  64 max:  64

 Total nr. of points:         64
 Nr. of blocks:                1
 Block length:                64
 Nr. of dummy points:          0


 Test of Precision of the Numerical Integration Grid
 ===================================================

 Integral of the Total Core Density:                   0.00000000000000



 ========================
 Density Fitting (zlmFit)
 ========================
  
 ZlmFit Fit Quality: VERYGOOD       
  
 Max L-expansion:                        min:   0 max:   0
 Nr. of radial interpolation points:     min: 120 max: 120



 =====
 S C F  ***  ScaSCF  ***
 =====
  

 CYCLE    1
 SCF Error: norm([F,P])=      0.000000000000, max([F,P])=      0.000000000000
 orbitals (Q,E):
 ---------------
 S :1...2            ( 1.00    -0.4983)  ( 0.00     0.1718)

 CYCLE    2
 SCF Error: norm([F,P])=      0.033001933656, max([F,P])=      0.033001933656
 orbitals (Q,E):
 ---------------
 S :1...2            ( 1.00    -0.2268)  ( 0.00     0.4005)

 CYCLE    3
  SDIIS (wt  0.000):  0.1528  0.8472
 A-DIIS (wt  1.000):  0.0000  1.0000
  DIIS coefficients:  0.0000  1.0000
 SCF Error: norm([F,P])=      0.005954454000, max([F,P])=      0.005954454000
 orbitals (Q,E):
 ---------------
 S :1...2            ( 1.00    -0.2417)  ( 0.00     0.3884)

 CYCLE    4
  SDIIS (wt  1.000):  0.1463  0.8537
 A-DIIS (wt  0.000):  0.0000  1.0000
  DIIS coefficients:  0.1463  0.8537
 SCF Error: norm([F,P])=      0.001020399433, max([F,P])=      0.001020399433
 orbitals (Q,E):
 ---------------
 S :1...2            ( 1.00    -0.2394)  ( 0.00     0.3902)

 CYCLE    5
  SDIIS (wt  1.000):  0.0014  0.9986
  DIIS coefficients:  0.0014  0.9986
 SCF Error: norm([F,P])=      0.000001436995, max([F,P])=      0.000001436995
 orbitals (Q,E):
 ---------------
 S :1...2            ( 1.00    -0.2394)  ( 0.00     0.3902)

 CYCLE    6
  SDIIS (wt  1.000): -0.0002  1.0002
  DIIS coefficients: -0.0002  1.0002
 SCF Error: norm([F,P])=      0.000000000334, max([F,P])=      0.000000000334
 orbitals (Q,E):
 ---------------
 S :1...2            ( 1.00    -0.2394)  ( 0.00     0.3902)

 SCF CONVERGED

 CYCLE    7
1
 ***************************************************************************************************



                                                *******************
                                                *  R E S U L T S  *
                                                *******************
  
 *** Using FIT density in Focky
  SDIIS (wt  1.000):  0.0000  1.0000
  DIIS coefficients:  0.0000  1.0000
 SCF Error: norm([F,P])=      0.000000000000, max([F,P])=      0.000000000000

 Scaled ZORA Orbital Energies, per Irrep and Spin:
 =================================================
                        Occup              E (au)              E (eV)       Diff (eV) with prev. cycle
                        -----      --------------------        ------       --------------------------
 S
               1        1.000     -0.23939248892723E+00        -6.514               9.37E-14
               2        0.000      0.39021645958604E+00        10.618


 Partially Occupied:
               1 S                -0.23939248892723E+00
  
 LUMO :        2 S                 0.39021645958604E+00
  


 All Electron Calculation, thus no Orbital Energies of the Core Orbitals are calculated



 =======================================
 M U L L I K E N   P O P U L A T I O N S
 =======================================
  
 The survey below gives for each atom:
 a) the total charge (Z minus electrons)
 b) the net spin polarization (nr of electrons spin-A minus spin-B)
 c) for each spin the atomic electron valence density (integrated) per L-value.

 Atom              Charge    Spin density          S         P         D         F
 ----              ------    ------------       ------    ------    ------    ------
 1 H              -0.0000                       1.0000    0.0000    0.0000    0.0000

 Populations of individual BAS functions
 ----------------------------------------
 1 H            0.6465  0.3535

 Gross Charges per Atom (Z minus electrons)
 ==========================================
            -0.0000
 Net Total: -0.00000000



 =======================================================================
 Electrostatic potential at the Nuclei due to electrons and other nuclei
 =======================================================================
  
         Atom                  Potential
         ----                  ---------
     1)   H                   0.94379605
 
 
 ========================
 No memory problems found
 ========================
 
 Maximum number of active allocate calls:         264
 
 *******************************************************************************

                             A D F   E X I T
 NORMAL TERMINATION



 =================
 Timing Statistics
 =================
  
 Total Used :                     CPU=        0.50      System=        0.05     Elapsed=        0.79

 Calls  Section                     ( Mean, Percentage )
 ---------------------------------------------------------------------------------------------------
     3  ><      ................      0.00    1.31             0.00    3.85             0.00    1.50
     1  INIT    ................      0.09   18.13             0.00    9.03             0.11   13.60
     1  GEOMET  ................      0.02    4.88             0.01   14.06             0.06    7.39
     1  INPUTA  ................      0.01    1.37             0.00    2.96             0.01    1.59
     1  MAINSY  ................      0.02    3.13             0.00    8.12             0.04    4.98
     1  SYMFIT  ................      0.00    0.36             0.00    0.53             0.00    0.35
     1  CORORT  ................      0.00    0.31             0.00    0.00             0.00    0.52
     1  SYMORB  ................      0.00    0.32             0.00    0.00             0.00    0.37
     1  CLSMAT  ................      0.01    1.91             0.00    0.00             0.02    1.91
     1  ORTHON  ................      0.01    2.38             0.00    1.67             0.03    3.43
     1  GENPT   ................      0.02    4.89             0.00    3.22             0.05    6.27
     1  PTBAS   ................      0.01    1.73             0.00    2.12             0.02    2.11
     7  FOCKY   ................      0.03   44.65             0.00   30.51             0.04   35.41
     7  FOCKTR  ................      0.00    1.35             0.00    1.60             0.00    1.88
     7  SDIIS   ................      0.00    4.82             0.00   13.89             0.01    7.58
     1  COREPS  ................      0.02    3.38             0.00    3.60             0.03    3.22
     1  POPAN   ................      0.01    1.28             0.00    0.36             0.01    1.50
     1  DEBYE   ................      0.00    0.48             0.00    0.00             0.01    0.63
     1  EXIT PROCEDURE .........      0.02    3.32             0.00    4.46             0.05    5.77


 Currently Open Files (EXIT00)
 ====================

 Unit    Access Format  Status   Type       Ident (file)
 -------------------------------------------------------
   3      SEQ    FORM   TRANSP  NORMAL      LOGFILE
                                          ( logfile )

 ***************************************************************************************************
 (LOGFILE)
 <Feb04-2021> <20:26:22>  DIRAC 2019  RunTime: Feb04-2021 20:26:22  Nodes: 1  Procs: 1
 <Feb04-2021> <20:26:22>  NORMAL TERMINATION
 <Feb04-2021> <20:26:22>  END
 <Feb04-2021> <20:26:22>  ADF 2019  RunTime: Feb04-2021 20:26:22  Nodes: 1  Procs: 1
 <Feb04-2021> <20:26:22>  Hydrogen (DZ)
 <Feb04-2021> <20:26:22>  RunType   : CREATE
 <Feb04-2021> <20:26:22>  Net Charge: 0 (Nuclei minus Electrons)
 <Feb04-2021> <20:26:22>  Symmetry  : ATOM
  Coordinates
    Atom         X           Y           Z   (Angstrom)
    1.H         0.000000    0.000000    0.000000
 <Feb04-2021> <20:26:22>  >>>> CORORT
 <Feb04-2021> <20:26:22>  >>>> CLSMAT
 <Feb04-2021> <20:26:22>  >>>> ORTHON
 <Feb04-2021> <20:26:22>  >>>> GENPT
 <Feb04-2021> <20:26:22>  Block Length=  64
 <Feb04-2021> <20:26:22>  >>>> PTBAS
 <Feb04-2021> <20:26:22>  >>>> CYCLE
 <Feb04-2021> <20:26:22>              |Error|         MaxErr       Wt(A-DIIS)
 <Feb04-2021> <20:26:22>      1      0.00000000      0.00000000
 <Feb04-2021> <20:26:22>      2      0.03300193      0.03300193
 <Feb04-2021> <20:26:22>      3      0.00595445      0.00595445    100.0
 <Feb04-2021> <20:26:22>      4      0.00102040      0.00102040      0.0
 <Feb04-2021> <20:26:22>      5      0.00000144      0.00000144      0.0
 <Feb04-2021> <20:26:22>      6      0.00000000      0.00000000      0.0
 <Feb04-2021> <20:26:22>  SCF converged
 <Feb04-2021> <20:26:22>      7      0.00000000      0.00000000      0.0
 <Feb04-2021> <20:26:23>  >>>> POPAN
 <Feb04-2021> <20:26:23>  >>>> DEBYE
 <Feb04-2021> <20:26:23>  NORMAL TERMINATION
 <Feb04-2021> <20:26:23>  END

 *******************************************************************************
 *                                                                             *
 *  -------------------------------------                                      *
 *   Amsterdam Density Functional  (ADF)         2019                          *
 *  -------------------------------------                                      *
 *                                               r74351 2019-04-25             *
 *                                                                             *
 *                                                                             *
 *                            =====================                            *
 *                            |                   |                            *
 *                            |     D I R A C     |                            *
 *                            |                   |                            *
 *                            =====================                            *
 *                                                                             *
 *                                                                             *
 *   Online information and documentation:  https://www.scm.com/support/       *
 *   E-mail:  support@scm.com   info@scm.com                                   *
 *                                                                             *
 *   Scientific publications using ADF results must be properly referenced     *
 *   See the User Manuals (or the web site) for recommended citations          *
 *   The terms and conditions of the End User License Agreement apply to       *
 *   the use of ADF, https://www.scm.com/license-terms/                        *
 *                                                                             *
 **********************  x86_64_linux_intel / intelmpi  ************************
 
 Licensed to: Dr. Emilie Guidez / UC Denver / Denver / CO / USA
 SCM User ID: u20218
  
 DIRAC 2019  RunTime: Feb04-2021 20:26:23  Nodes: 1  Procs: 1

 Temporary files are created in /home/chemistry/limjae/scr/kid_0.2133750096

1
 NITROGEN ATOM 1s CORE RELATIVISTIC, Point Nuc, A and c from 
 N J RN H ZN XION ANUC CLIGHT
 5000    4100.00000000197.36710137  7.00000000  0.00000000   14.003074  0.1370360E+03
  PH   PHI     EPS        DEL        DELRVR
  0.30  0.30     2500.00  0.00001000  0.00001000
 IDIRC  NC1  NDEBU NPRIN  IPUN IRCOR IWCOR
   1   300     0     0     0     0     1
   XALPHA      XLATTER      RNUC
  0.70000000  0.00000000  0.00000000 Point Charge
   XN   XL   XJ      XE          XZ      XDELL
  1.0  0.0  0.5      -5.000       2.000     0.00000
  2.0  0.0  0.5      -1.000       2.000     0.00000
  2.0  1.0  0.5      -1.000       2.000     0.00000
  2.0  1.0  1.5      -1.000       1.000     0.00000
 ICORP=  0  NPCL=  0  DEMP=0.00  PEPS=0.000000
 R(1)=  0.1000000E-08 D=  0.1005080E+01 RNUC=  0.0000000E+00
 converged at cycle   25  DENSITY AVERAGING    0.3000
  MAXIMUM ERROR IN R.V(R) IS   0.97905511E-05
 Q,EY,EV,EZ,ESUM,ETOT,RHO  0.700000E+01 -0.796419E+01 -0.840156E+02 -0.127663E+03 -0.300692E+02 -0.538837E+02  0.270066E-14


 DIRAC CALCULATION
1                    NITROGEN ATOM 1s CORE RELATIVISTIC, Point Nuc, A and c from libtc


 EXCHANGE COEFFICIENT=  0.7000000           TAIL CORRECTION=  0.           NUCLEAR RADIUS=  0.000E+00
0                       ORBITAL    N    L    J     ELECTRONS     EIGENVALUE                DELTA OF EIGENV.

                          1S1/2  1.0  0.0  0.5     2.000       -0.1403720E+02                 0.4993583E-04
                          2S1/2  2.0  0.0  0.5     2.000       -0.6456810E+00                 0.6544571E-05
                          2P1/2  2.0  1.0  0.5     2.000       -0.2347008E+00                 0.5687228E-05
                          2P3/2  2.0  1.0  1.5     1.000       -0.2339893E+00                 0.5679256E-05


                                        NUCLEAR CHARGE=    7.000000
                            INTEGRAL OF CHARGE DENSITY=    7.000000
                           SUM OF THE ORBITAL ENERGIES=    -30.0692
                                          TOTAL ENERGY=    -53.8837
                                        KINETIC ENERGY=     53.9465
                             NUCLEAR ATTRACTION ENERGY=   -127.6627
                             ELECTRON REPULSION ENERGY=     25.8056
                                       EXCHANGE ENERGY=     -5.9731

 *******************************************************************************

                             D I R A C   E X I T
 NORMAL TERMINATION



 =================
 Timing Statistics
 =================
  
 Total Used :                     CPU=        0.10      System=        0.01     Elapsed=        0.18

 Calls  Section                     ( Mean, Percentage )
 ---------------------------------------------------------------------------------------------------
     2  ><      ................      0.00    0.00             0.00    0.04             0.00    0.00
     1  EXIT PROCEDURE .........      0.10  100.00             0.01   99.96             0.18  100.00


 Currently Open Files (EXIT00)
 ====================

 Unit    Access Format  Status   Type       Ident (file)
 -------------------------------------------------------
   3      SEQ    FORM   TRANSP  NORMAL      LOGFILE
                                          ( logfile )
 
Create N   file=DZ-N.1s
XC
 GGA PBE
End
relativistic ZORA
Corepotentials t12.rel
End

 *******************************************************************************
 *                                                                             *
 *  -------------------------------------                                      *
 *   Amsterdam Density Functional  (ADF)         2019                          *
 *  -------------------------------------                                      *
 *                                               r74351 2019-04-25             *
 *                                                                             *
 *                                                                             *
 *                              =================                              *
 *                              |               |                              *
 *                              |     A D F     |                              *
 *                              |               |                              *
 *                              =================                              *
 *                                                                             *
 *                                                                             *
 *   Online information and documentation:  https://www.scm.com/support/       *
 *   E-mail:  support@scm.com   info@scm.com                                   *
 *                                                                             *
 *   Scientific publications using ADF results must be properly referenced     *
 *   See the User Manuals (or the web site) for recommended citations          *
 *   The terms and conditions of the End User License Agreement apply to       *
 *   the use of ADF, https://www.scm.com/license-terms/                        *
 *                                                                             *
 **********************  x86_64_linux_intel / intelmpi  ************************
 
 Licensed to: Dr. Emilie Guidez / UC Denver / Denver / CO / USA
 SCM User ID: u20218
  
 ADF 2019  RunTime: Feb04-2021 20:26:23  Nodes: 1  Procs: 1

 Temporary files are created in /home/chemistry/limjae/scr/kid_0.876240832

 Nitrogen (DZ, 1s frozen)



 ===========================
 A T T A C H E D   F I L E S
 ===========================
  
 CREATE - Data File:    DZ-N.1s
                        Nitrogen (DZ, 1s frozen)
 Core Potentials:
         file : t12.rel



 ===============================
 M O D E L   P A R A M E T E R S
 ===============================
  
 DENSITY FUNCTIONAL POTENTIAL (scf)
    LDA:                               PW92                                    == Not Default ==
    Gradient Corrections:              PBEc PBEx                               == Not Default ==

 SPIN  (restricted / unrestr.)
    Molecule:                          Restricted                               

 OTHER ASPECTS
    Relativistic Corrections:          scalar (ZORA,MAPA)                      == Not Default ==

    Nuclear Charge Density Model:      Point Charge Nuclei                      
    Core Treatment:                    Frozen Orbital(s)                        

    Hyperfine or Zeeman Interaction:   ---                                      



 =====================================
 S Y M M E T R Y ,   E L E C T R O N S
 =====================================
  
 Symmetry: ATOM

 Irreducible Representations, including subspecies
 -------------------------------------------------
 S
 P:x  P:y  P:z
 D:z2  D:x2-y2  D:xy  D:xz  D:yz
 F:z3  F:z  F:xyz  F:z2x  F:z2y  F:x  F:y


 Configuration of Valence Electrons
 ==================================

          Occupation Numbers
          -------------------------------------------------
 S        2
 P        3
 D        0
 F        0
          -------------------------------------------------

 Total:   5

 Net Charge: 0 (Nuclei minus Electrons)

 Preset values for MO occupations will be applied through SCF cycle no. 1000000
 Thereafter, the program will assign electrons to MOs that are spatially
 similar to the occupied MOs in a "reference" cycle ("KeepOrbitals").
 The reference cycle is always the PREVIOUS cycle: it will evolve with
 the SCF procedure.



 ================================
 (Slater-type)  F U N C T I O N S  ***  (Basis and Fit)  ***
 ================================
  

 Atom Type    1  (N)
 ==============

 Valence Basis Sets:   5
 -----------------------
   1 S    6.380000
   2 S    1.460000
   2 S    2.380000
   2 P    1.120000
   2 P    2.580000

 Frozen Core Shells
 ------------------
    S:  1


 BAS: List of all Elementary Cartesian Basis Functions
 =====================================================

 The numbering in the list below (to the right of the function characteristics) is referred
 to in print-outs of MO eigenvectors and Mulliken populations in the BAS representation
 (as contrasted to the SFO representation).

 Notes:
 1. The functions are characterized by a polynomial prefactor (powers of x,y,z and r) and
    an exponential decay factor alpha.
 2. Since the basis sets are specific for an atom TYPE, the individual functions occur on
    all atoms of that type.
 3. The word 'Core' in the left margin signals that it is a Core Function (CF) : not a
    degree of freedom in the valence set, but only used to ensure orthogonalization of
    the other valence basis functions on the frozen Core Orbitals.


 (power of) X  Y  Z  R     Alpha  on Atom
            ==========     =====     ==========

 N                                    1
                                  ---------------------------------------------------------------------------
    Core    0  0  0  0     6.380      1
            0  0  0  1     1.460      2
            0  0  0  1     2.380      3
            1  0  0  0     1.120      4
            0  1  0  0     1.120      5
            0  0  1  0     1.120      6
            1  0  0  0     2.580      7
            0  1  0  0     2.580      8
            0  0  1  0     2.580      9

 Total number of charge fitting functions (nprimf)        82
 Total number of Cartesian basis functions (naos)          9
 Total number of Cartesian core functions  (ncos)          1



 BAS: List of all Elementary Cartesian Basis Functions
 =====================================================

 The numbering in the list below (to the right of the function characteristics) is referred
 to in print-outs of MO eigenvectors and Mulliken populations in the BAS representation
 (as contrasted to the SFO representation).

 Notes:
 1. The functions are characterized by a polynomial prefactor (powers of x,y,z and r) and
    an exponential decay factor alpha.
 2. Since the basis sets are specific for an atom TYPE, the individual functions occur on
    all atoms of that type.
 3. The word 'Core' in the left margin signals that it is a Core Function (CF) : not a
    degree of freedom in the valence set, but only used to ensure orthogonalization of
    the other valence basis functions on the frozen Core Orbitals.


 (power of) X  Y  Z  R     Alpha  on Atom
            ==========     =====     ==========

 N                                    1
                                  ---------------------------------------------------------------------------
    Core    0  0  0  0     6.380      1
            0  0  0  1     1.460      2
            0  0  0  1     2.380      3
            1  0  0  0     1.120      4
            0  1  0  0     1.120      5
            0  0  1  0     1.120      6
            1  0  0  0     2.580      7
            0  1  0  0     2.580      8
            0  0  1  0     2.580      9
1
 ***************************************************************************************************



                                              ***********************
                                              *  T E C H N I C A L  *
                                              ***********************
  



 =============================================================
 P A R A L L E L I Z A T I O N  and  V E C T O R I Z A T I O N
 =============================================================
  
 Nr of parallel processes:                                1
 Maximum vector length in NumInt loops:                 128



 =====================
 S C F   U P D A T E S
 =====================
  
 Max. nr. of cycles:                               300
 Convergence criterion:                              0.0000000100
   secondary criterion:                              0.0000000100

 Mix parameter (when DIIS does not apply):           0.2000000000
 Special mix parameter for the first cycle:          1.0000000000
 Mixed ADIIS+SDIIS will be used                  
    Max number of expansion vectors:                10
    Pure ADIIS when Max([F,P]) is above              0.1000000000
    Pure SDIIS when Max([F,P]) is below              0.0010000000
 Automatic ElectronSmearing (in case of problematic SCF convergence) disabled



 =================
 P R E C I S I O N  ***  (General: NumInt, NeglectFunctionTails, ...)  ***
 =================
  

 NumInt:           Target precision:                12.0000000000
 -------           Initial precision:               10.0000000000
                   Min. precision (optimization):   10.0000000000

 Neglect Functions:          Basis functions:        0.1000000000E-13
 ------------------          Fit functions:          0.1000000000E-13



 ===========================
 L I N E A R   S C A L I N G
 ===========================
  

 Cut-off radii density fit:                        0.1000000000E-97
 Overlap cut-off criterion AO matrix elements:     0.1000000000E-97
 Cut-offs for Coulomb potential and fitted density:0.1000000000E-97
 Cut-off criterion for Coulomb multipole terms:    0.1000000000E-97
 Progressive Convergence parameter:                 0.000000000    
1
 ***************************************************************************************************



                                            ***************************
                                            *  C O M P U T A T I O N  *
                                            ***************************
  

 Number of elements of the density matrix on this node (used, total):        45        45



 ===========================================
 Numerical Integration : Fuzzy Cells (Becke)
 ===========================================
  
 Becke grid quality: VERYGOOD       
  
 Lebedev angular grid order:             min:  13 max:  41
 Nr. of radial points:                   min:  68 max:  68

 Total nr. of points:         68
 Nr. of blocks:                1
 Block length:                68
 Nr. of dummy points:          0


 Test of Precision of the Numerical Integration Grid
 ===================================================

 Integral of the Total Core Density:                   2.00000004779027
 Relative Error:                                       2.390E-08



 ========================
 Density Fitting (zlmFit)
 ========================
  
 ZlmFit Fit Quality: VERYGOOD       
  
 Max L-expansion:                        min:   0 max:   0
 Nr. of radial interpolation points:     min: 150 max: 150



 =====
 S C F  ***  ScaSCF  ***
 =====
  

 CYCLE    1
 SCF Error: norm([F,P])=      0.000000000000, max([F,P])=      0.000000000000
 orbitals (Q,E):
 ---------------
 S :1...2            ( 2.00    -3.8308)  ( 0.00    -1.5342)
 P :1...2            ( 3.00    -3.5256)  ( 0.00    -1.4645)

 CYCLE    2
 SCF Error: norm([F,P])=      1.549673975551, max([F,P])=      1.258101921759
 orbitals (Q,E):
 ---------------
 S :1...2            ( 2.00    -0.1903)  ( 0.00     1.2168)
 P :1...2            ( 3.00     0.1546)  ( 0.00     1.2047)

 CYCLE    3
  SDIIS (wt  0.000):  0.4674  0.5326
 A-DIIS (wt  1.000):  0.3240  0.6760
  DIIS coefficients:  0.3240  0.6760
 SCF Error: norm([F,P])=      1.360249054281, max([F,P])=      1.048050156299
 orbitals (Q,E):
 ---------------
 S :1...2            ( 2.00    -0.8381)  ( 0.00     0.5861)
 P :1...2            ( 3.00    -0.4109)  ( 0.00     0.4817)

 CYCLE    4
  SDIIS (wt  0.000):  0.1928  0.8072
 A-DIIS (wt  1.000):  0.0000  1.0000
  DIIS coefficients:  0.0000  1.0000
 SCF Error: norm([F,P])=      0.325925918927, max([F,P])=      0.228226698732
 orbitals (Q,E):
 ---------------
 S :1...2            ( 2.00    -0.5797)  ( 0.00     0.7788)
 P :1...2            ( 3.00    -0.1643)  ( 0.00     0.6846)

 CYCLE    5
  SDIIS (wt  0.000):  0.4892  0.5108
 A-DIIS (wt  1.000):  0.4642  0.5358
  DIIS coefficients:  0.4642  0.5358
 SCF Error: norm([F,P])=      0.312119029167, max([F,P])=      0.221835145933
 orbitals (Q,E):
 ---------------
 S :1...2            ( 2.00    -0.6950)  ( 0.00     0.6844)
 P :1...2            ( 3.00    -0.2715)  ( 0.00     0.5814)

 CYCLE    6
  SDIIS (wt  0.928):  0.0359  0.9641
 A-DIIS (wt  0.072):  0.0000  1.0000
  DIIS coefficients:  0.0333  0.9667
 SCF Error: norm([F,P])=      0.011627935283, max([F,P])=      0.008114454643
 orbitals (Q,E):
 ---------------
 S :1...2            ( 2.00    -0.6895)  ( 0.00     0.6886)
 P :1...2            ( 3.00    -0.2663)  ( 0.00     0.5858)

 CYCLE    7
  SDIIS (wt  1.000):  0.0715  0.9285
  DIIS coefficients:  0.0715  0.9285
 SCF Error: norm([F,P])=      0.000895557034, max([F,P])=      0.000636506786
 orbitals (Q,E):
 ---------------
 S :1...2            ( 2.00    -0.6898)  ( 0.00     0.6884)
 P :1...2            ( 3.00    -0.2666)  ( 0.00     0.5855)

 CYCLE    8
  SDIIS (wt  1.000): -0.0084  1.0084
  DIIS coefficients: -0.0084  1.0084
 SCF Error: norm([F,P])=      0.000007431471, max([F,P])=      0.000005244833
 orbitals (Q,E):
 ---------------
 S :1...2            ( 2.00    -0.6898)  ( 0.00     0.6884)
 P :1...2            ( 3.00    -0.2666)  ( 0.00     0.5855)

 CYCLE    9
  SDIIS (wt  1.000):  0.0035  0.9965
  DIIS coefficients:  0.0035  0.9965
 SCF Error: norm([F,P])=      0.000000026230, max([F,P])=      0.000000018481
 orbitals (Q,E):
 ---------------
 S :1...2            ( 2.00    -0.6898)  ( 0.00     0.6884)
 P :1...2            ( 3.00    -0.2666)  ( 0.00     0.5855)

 CYCLE   10
  SDIIS (wt  1.000):  0.0008  0.9992
  DIIS coefficients:  0.0008  0.9992
 SCF Error: norm([F,P])=      0.000000000021, max([F,P])=      0.000000000015
 orbitals (Q,E):
 ---------------
 S :1...2            ( 2.00    -0.6898)  ( 0.00     0.6884)
 P :1...2            ( 3.00    -0.2666)  ( 0.00     0.5855)

 SCF CONVERGED

 CYCLE   11
1
 ***************************************************************************************************



                                                *******************
                                                *  R E S U L T S  *
                                                *******************
  
 *** Using FIT density in Focky
  SDIIS (wt  1.000):  0.0005  0.9995
  DIIS coefficients:  0.0005  0.9995
 SCF Error: norm([F,P])=      0.000000000000, max([F,P])=      0.000000000000

 Scaled ZORA Orbital Energies, per Irrep and Spin:
 =================================================
                        Occup              E (au)              E (eV)       Diff (eV) with prev. cycle
                        -----      --------------------        ------       --------------------------
 S
               1        2.000     -0.68979333234436E+00       -18.770               1.57E-13
               2        0.000      0.68835668824347E+00        18.731
 P
               1        3.000     -0.26655778219350E+00        -7.253               1.57E-13
               2        0.000      0.58549619457877E+00        15.932


 Partially Occupied:
               1 P                -0.26655778219350E+00
  
 HOMO :        1 S                -0.68979333234436E+00
 LUMO :        2 P                 0.58549619457877E+00
  


 Orbital Energies, all Irreps
 ========================================

 Irrep        no.  (spin)   Occup              E (au)                E (eV)
 ---------------------------------------------------------------------------
 S             1             2.00       -0.68979333234436E+00       -18.7702
 P             1             3.00       -0.26655778219350E+00        -7.2534
 P             2             0.00        0.58549619457877E+00        15.9322
 S             2             0.00        0.68835668824347E+00        18.7311


 Scaled ZORA Orbital Energies of the Core Orbitals:
 ==================================================

 (Note that the atoms are grouped by atomtype, see the labels, and may hence NOT be in input order)

 AtomType  Orbital  Atom                   E (au)                        E (eV)
 --------  -------  ----           --------------------        ----------------
 N           1S        1          -0.14166659762581E+02                -385.494



 =======================================
 M U L L I K E N   P O P U L A T I O N S
 =======================================
  
 The survey below gives for each atom:
 a) the total charge (Z minus electrons)
 b) the net spin polarization (nr of electrons spin-A minus spin-B)
 c) for each spin the atomic electron valence density (integrated) per L-value.

 Atom              Charge    Spin density          S         P         D         F
 ----              ------    ------------       ------    ------    ------    ------
 1 N              -0.0000                       2.0000    3.0000    0.0000    0.0000

 Populations of individual BAS functions
 ----------------------------------------
 1 N            0.0005  0.8702  1.1293  0.4947  0.4947  0.4947  0.5053  0.5053  0.5053

 Gross Charges per Atom (Z minus electrons)
 ==========================================
            -0.0000
 Net Total: -0.00000000



 =======================================================================
 Electrostatic potential at the Nuclei due to electrons and other nuclei
 =======================================================================
  
         Atom                  Potential
         ----                  ---------
     1)   N                  18.25311827
 
 
 ========================
 No memory problems found
 ========================
 
 Maximum number of active allocate calls:         319
 
 *******************************************************************************

                             A D F   E X I T
 NORMAL TERMINATION



 =================
 Timing Statistics
 =================
  
 Total Used :                     CPU=        0.66      System=        0.08     Elapsed=        1.21

 Calls  Section                     ( Mean, Percentage )
 ---------------------------------------------------------------------------------------------------
     3  ><      ................      0.00    1.37             0.00    3.97             0.01    1.36
     1  INIT    ................      0.09   13.98             0.01    7.62             0.11    9.27
     1  GEOMET  ................      0.03    5.16             0.01   12.20             0.16   12.83
     1  INPUTA  ................      0.01    1.24             0.00    1.38             0.01    1.21
     1  MAINSY  ................      0.02    3.06             0.00    2.53             0.05    3.74
     1  SYMFIT  ................      0.00    0.17             0.00    1.32             0.00    0.24
     1  CORORT  ................      0.00    0.33             0.00    0.03             0.00    0.37
     1  SYMORB  ................      0.00    0.10             0.00    0.72             0.00    0.20
     1  CLSMAT  ................      0.01    1.15             0.00    1.89             0.02    1.36
     1  ORTHON  ................      0.01    0.94             0.00    1.58             0.01    0.85
     1  GENPT   ................      0.02    2.46             0.00    3.87             0.03    2.66
     1  PTBAS   ................      0.01    0.88             0.00    3.83             0.02    1.35
    11  FOCKY   ................      0.03   52.98             0.00   29.69             0.05   43.10
    11  FOCKTR  ................      0.00    2.17             0.00    1.95             0.00    2.93
    11  SDIIS   ................      0.00    6.90             0.00   14.41             0.01   11.25
     1  COREPS  ................      0.02    3.28             0.01    7.75             0.04    2.98
     1  POPAN   ................      0.01    1.07             0.00    1.68             0.02    1.28
     1  DEBYE   ................      0.00    0.37             0.00    0.03             0.01    0.46
     1  EXIT PROCEDURE .........      0.02    2.37             0.00    3.54             0.03    2.55


 Currently Open Files (EXIT00)
 ====================

 Unit    Access Format  Status   Type       Ident (file)
 -------------------------------------------------------
   3      SEQ    FORM   TRANSP  NORMAL      LOGFILE
                                          ( logfile )

 ***************************************************************************************************
 (LOGFILE)
 <Feb04-2021> <20:26:22>  DIRAC 2019  RunTime: Feb04-2021 20:26:22  Nodes: 1  Procs: 1
 <Feb04-2021> <20:26:22>  NORMAL TERMINATION
 <Feb04-2021> <20:26:22>  END
 <Feb04-2021> <20:26:22>  ADF 2019  RunTime: Feb04-2021 20:26:22  Nodes: 1  Procs: 1
 <Feb04-2021> <20:26:22>  Hydrogen (DZ)
 <Feb04-2021> <20:26:22>  RunType   : CREATE
 <Feb04-2021> <20:26:22>  Net Charge: 0 (Nuclei minus Electrons)
 <Feb04-2021> <20:26:22>  Symmetry  : ATOM
  Coordinates
    Atom         X           Y           Z   (Angstrom)
    1.H         0.000000    0.000000    0.000000
 <Feb04-2021> <20:26:22>  >>>> CORORT
 <Feb04-2021> <20:26:22>  >>>> CLSMAT
 <Feb04-2021> <20:26:22>  >>>> ORTHON
 <Feb04-2021> <20:26:22>  >>>> GENPT
 <Feb04-2021> <20:26:22>  Block Length=  64
 <Feb04-2021> <20:26:22>  >>>> PTBAS
 <Feb04-2021> <20:26:22>  >>>> CYCLE
 <Feb04-2021> <20:26:22>              |Error|         MaxErr       Wt(A-DIIS)
 <Feb04-2021> <20:26:22>      1      0.00000000      0.00000000
 <Feb04-2021> <20:26:22>      2      0.03300193      0.03300193
 <Feb04-2021> <20:26:22>      3      0.00595445      0.00595445    100.0
 <Feb04-2021> <20:26:22>      4      0.00102040      0.00102040      0.0
 <Feb04-2021> <20:26:22>      5      0.00000144      0.00000144      0.0
 <Feb04-2021> <20:26:22>      6      0.00000000      0.00000000      0.0
 <Feb04-2021> <20:26:22>  SCF converged
 <Feb04-2021> <20:26:22>      7      0.00000000      0.00000000      0.0
 <Feb04-2021> <20:26:23>  >>>> POPAN
 <Feb04-2021> <20:26:23>  >>>> DEBYE
 <Feb04-2021> <20:26:23>  NORMAL TERMINATION
 <Feb04-2021> <20:26:23>  END
 <Feb04-2021> <20:26:23>  DIRAC 2019  RunTime: Feb04-2021 20:26:23  Nodes: 1  Procs: 1
 <Feb04-2021> <20:26:23>  NORMAL TERMINATION
 <Feb04-2021> <20:26:23>  END
 <Feb04-2021> <20:26:23>  ADF 2019  RunTime: Feb04-2021 20:26:23  Nodes: 1  Procs: 1
 <Feb04-2021> <20:26:23>  Nitrogen (DZ, 1s frozen)
 <Feb04-2021> <20:26:23>  RunType   : CREATE
 <Feb04-2021> <20:26:23>  Net Charge: 0 (Nuclei minus Electrons)
 <Feb04-2021> <20:26:23>  Symmetry  : ATOM
  Coordinates
    Atom         X           Y           Z   (Angstrom)
    1.N         0.000000    0.000000    0.000000
 <Feb04-2021> <20:26:23>  >>>> CORORT
 <Feb04-2021> <20:26:23>  >>>> CLSMAT
 <Feb04-2021> <20:26:23>  >>>> ORTHON
 <Feb04-2021> <20:26:23>  >>>> GENPT
 <Feb04-2021> <20:26:23>  Block Length=  68
 <Feb04-2021> <20:26:23>  >>>> PTBAS
 <Feb04-2021> <20:26:23>  >>>> CYCLE
 <Feb04-2021> <20:26:24>              |Error|         MaxErr       Wt(A-DIIS)
 <Feb04-2021> <20:26:24>      1      0.00000000      0.00000000
 <Feb04-2021> <20:26:24>      2      1.54967398      1.25810192
 <Feb04-2021> <20:26:24>      3      1.36024905      1.04805016    100.0
 <Feb04-2021> <20:26:24>      4      0.32592592      0.22822670    100.0
 <Feb04-2021> <20:26:24>      5      0.31211903      0.22183515    100.0
 <Feb04-2021> <20:26:24>      6      0.01162794      0.00811445      7.2
 <Feb04-2021> <20:26:24>      7      0.00089556      0.00063651      0.0
 <Feb04-2021> <20:26:24>      8      0.00000743      0.00000524      0.0
 <Feb04-2021> <20:26:24>      9      0.00000003      0.00000002      0.0
 <Feb04-2021> <20:26:24>     10      0.00000000      0.00000000      0.0
 <Feb04-2021> <20:26:24>  SCF converged
 <Feb04-2021> <20:26:24>     11      0.00000000      0.00000000      0.0
 <Feb04-2021> <20:26:24>  >>>> POPAN
 <Feb04-2021> <20:26:24>  >>>> DEBYE
 <Feb04-2021> <20:26:24>  NORMAL TERMINATION
 <Feb04-2021> <20:26:24>  END

 *******************************************************************************
 *                                                                             *
 *  -------------------------------------                                      *
 *   Amsterdam Density Functional  (ADF)         2019                          *
 *  -------------------------------------                                      *
 *                                               r74351 2019-04-25             *
 *                                                                             *
 *                                                                             *
 *                            =====================                            *
 *                            |                   |                            *
 *                            |     D I R A C     |                            *
 *                            |                   |                            *
 *                            =====================                            *
 *                                                                             *
 *                                                                             *
 *   Online information and documentation:  https://www.scm.com/support/       *
 *   E-mail:  support@scm.com   info@scm.com                                   *
 *                                                                             *
 *   Scientific publications using ADF results must be properly referenced     *
 *   See the User Manuals (or the web site) for recommended citations          *
 *   The terms and conditions of the End User License Agreement apply to       *
 *   the use of ADF, https://www.scm.com/license-terms/                        *
 *                                                                             *
 **********************  x86_64_linux_intel / intelmpi  ************************
 
 Licensed to: Dr. Emilie Guidez / UC Denver / Denver / CO / USA
 SCM User ID: u20218
  
 DIRAC 2019  RunTime: Feb04-2021 20:26:24  Nodes: 1  Procs: 1

 Temporary files are created in /home/chemistry/limjae/scr/kid_0.280109020

1
 GOLD ATOM 4d CORE RELATIVISTIC, Point Nuc, A and c from libt
 N J RN H ZN XION ANUC CLIGHT
 5000   22100.00000000197.36710137 79.00000000  0.00000000  196.966551  0.1370360E+03
  PH   PHI     EPS        DEL        DELRVR
  0.30  0.30     2500.00  0.00001000  0.00001000
 IDIRC  NC1  NDEBU NPRIN  IPUN IRCOR IWCOR
   1   300     0     0     0     0    14
   XALPHA      XLATTER      RNUC
  0.70000000  0.00000000  0.00000000 Point Charge
   XN   XL   XJ      XE          XZ      XDELL
  1.0  0.0  0.5   -2600.000       2.000     0.00000
  2.0  0.0  0.5    -425.000       2.000     0.00000
  2.0  1.0  0.5    -425.000       2.000     0.00000
  2.0  1.0  1.5    -425.000       4.000     0.00000
  3.0  0.0  0.5    -100.000       2.000     0.00000
  3.0  1.0  0.5    -100.000       2.000     0.00000
  3.0  1.0  1.5    -100.000       4.000     0.00000
  3.0  2.0  1.5     -80.000       4.000     0.00000
  3.0  2.0  2.5     -80.000       6.000     0.00000
  4.0  0.0  0.5     -22.000       2.000     0.00000
  4.0  1.0  0.5     -20.000       2.000     0.00000
  4.0  1.0  1.5     -20.000       4.000     0.00000
  4.0  2.0  1.5     -11.000       4.000     0.00000
  4.0  2.0  2.5     -11.000       6.000     0.00000
  4.0  3.0  2.5      -1.000       6.000     0.00000
  4.0  3.0  3.5      -1.000       8.000     0.00000
  5.0  0.0  0.5      -3.000       2.000     0.00000
  5.0  1.0  0.5      -2.200       2.000     0.00000
  5.0  1.0  1.5      -2.200       4.000     0.00000
  5.0  2.0  1.5      -0.500       4.000     0.00000
  5.0  2.0  2.5      -0.500       6.000     0.00000
  6.0  0.0  0.5      -0.200       1.000     0.00000
 ICORP=  0  NPCL=  0  DEMP=0.00  PEPS=0.000000
 R(1)=  0.1000000E-08 D=  0.1005080E+01 RNUC=  0.0000000E+00
 converged at cycle   60  DENSITY AVERAGING    0.0786
  MAXIMUM ERROR IN R.V(R) IS   0.38523360E-05
 Q,EY,EV,EZ,ESUM,ETOT,RHO  0.790000E+02 -0.485545E+03 -0.336404E+05 -0.479937E+05 -0.117486E+05 -0.190466E+05  0.196298E-08


 DIRAC CALCULATION
1                    GOLD ATOM 4d CORE RELATIVISTIC, Point Nuc, A and c from libtc


 EXCHANGE COEFFICIENT=  0.7000000           TAIL CORRECTION=  0.           NUCLEAR RADIUS=  0.000E+00
0                       ORBITAL    N    L    J     ELECTRONS     EIGENVALUE                DELTA OF EIGENV.

                          1S1/2  1.0  0.0  0.5     2.000       -0.2963119E+04                 0.3731460E-04
                          2S1/2  2.0  0.0  0.5     2.000       -0.5226069E+03                 0.3102938E-04
                          2P1/2  2.0  1.0  0.5     2.000       -0.5013071E+03                 0.3249986E-04
                          2P3/2  2.0  1.0  1.5     4.000       -0.4338328E+03                 0.3150316E-04
                          3S1/2  3.0  0.0  0.5     2.000       -0.1233461E+03                 0.2017137E-04
                          3P1/2  3.0  1.0  0.5     2.000       -0.1137481E+03                 0.2099254E-04
                          3P3/2  3.0  1.0  1.5     4.000       -0.9885554E+02                 0.1984570E-04
                          3D3/2  3.0  2.0  1.5     4.000       -0.8287610E+02                 0.2174809E-04
                          3D5/2  3.0  2.0  2.5     6.000       -0.7967162E+02                 0.2135379E-04
                          4S1/2  4.0  0.0  0.5     2.000       -0.2673972E+02                 0.1054160E-04
                          4P1/2  4.0  1.0  0.5     2.000       -0.2264484E+02                 0.1056903E-04
                          4P3/2  4.0  1.0  1.5     4.000       -0.1906321E+02                 0.9669504E-05
                          4D3/2  4.0  2.0  1.5     4.000       -0.1235180E+02                 0.9615342E-05
                          4D5/2  4.0  2.0  2.5     6.000       -0.1168427E+02                 0.9341815E-05
                          4F5/2  4.0  3.0  2.5     6.000       -0.3062221E+01                 0.8653601E-05
                          4F7/2  4.0  3.0  3.5     8.000       -0.2921300E+01                 0.8510675E-05
                          5S1/2  5.0  0.0  0.5     2.000       -0.3963776E+01                 0.3355907E-05
                          5P1/2  5.0  1.0  0.5     2.000       -0.2629660E+01                 0.2984355E-05
                          5P3/2  5.0  1.0  1.5     4.000       -0.2015087E+01                 0.2530381E-05
                          5D3/2  5.0  2.0  1.5     4.000       -0.2662248E+00                 0.1434098E-05
                          5D5/2  5.0  2.0  2.5     6.000       -0.2094938E+00                 0.1305568E-05
                          6S1/2  6.0  0.0  0.5     1.000       -0.1940684E+00                 0.3484321E-06


                                        NUCLEAR CHARGE=   79.000000
                            INTEGRAL OF CHARGE DENSITY=   79.000000
                           SUM OF THE ORBITAL ENERGIES= -11748.5839
                                          TOTAL ENERGY= -19046.6065
                                        KINETIC ENERGY=  21891.8398
                             NUCLEAR ATTRACTION ENERGY= -47993.6963
                             ELECTRON REPULSION ENERGY=   7419.4090
                                       EXCHANGE ENERGY=   -364.1591

 *******************************************************************************

                             D I R A C   E X I T
 NORMAL TERMINATION



 =================
 Timing Statistics
 =================
  
 Total Used :                     CPU=        0.81      System=        0.02     Elapsed=        0.99

 Calls  Section                     ( Mean, Percentage )
 ---------------------------------------------------------------------------------------------------
     2  ><      ................      0.00    0.00             0.00    0.04             0.00    0.00
     1  EXIT PROCEDURE .........      0.81  100.00             0.02   99.96             0.99  100.00


 Currently Open Files (EXIT00)
 ====================

 Unit    Access Format  Status   Type       Ident (file)
 -------------------------------------------------------
   3      SEQ    FORM   TRANSP  NORMAL      LOGFILE
                                          ( logfile )
 
Create Au   file=DZ-Au.4d
XC
 GGA PBE
End
relativistic ZORA
Corepotentials t12.rel
End

 *******************************************************************************
 *                                                                             *
 *  -------------------------------------                                      *
 *   Amsterdam Density Functional  (ADF)         2019                          *
 *  -------------------------------------                                      *
 *                                               r74351 2019-04-25             *
 *                                                                             *
 *                                                                             *
 *                              =================                              *
 *                              |               |                              *
 *                              |     A D F     |                              *
 *                              |               |                              *
 *                              =================                              *
 *                                                                             *
 *                                                                             *
 *   Online information and documentation:  https://www.scm.com/support/       *
 *   E-mail:  support@scm.com   info@scm.com                                   *
 *                                                                             *
 *   Scientific publications using ADF results must be properly referenced     *
 *   See the User Manuals (or the web site) for recommended citations          *
 *   The terms and conditions of the End User License Agreement apply to       *
 *   the use of ADF, https://www.scm.com/license-terms/                        *
 *                                                                             *
 **********************  x86_64_linux_intel / intelmpi  ************************
 
 Licensed to: Dr. Emilie Guidez / UC Denver / Denver / CO / USA
 SCM User ID: u20218
  
 ADF 2019  RunTime: Feb04-2021 20:26:26  Nodes: 1  Procs: 1

 Temporary files are created in /home/chemistry/limjae/scr/kid_0.814876213

 Gold (DZ, 4d frozen)



 ===========================
 A T T A C H E D   F I L E S
 ===========================
  
 CREATE - Data File:    DZ-Au.4d
                        Gold (DZ, 4d frozen)
 Core Potentials:
         file : t12.rel



 ===============================
 M O D E L   P A R A M E T E R S
 ===============================
  
 DENSITY FUNCTIONAL POTENTIAL (scf)
    LDA:                               PW92                                    == Not Default ==
    Gradient Corrections:              PBEc PBEx                               == Not Default ==

 SPIN  (restricted / unrestr.)
    Molecule:                          Restricted                               

 OTHER ASPECTS
    Relativistic Corrections:          scalar (ZORA,MAPA)                      == Not Default ==

    Nuclear Charge Density Model:      Point Charge Nuclei                      
    Core Treatment:                    Frozen Orbital(s)                        

    Hyperfine or Zeeman Interaction:   ---                                      



 =====================================
 S Y M M E T R Y ,   E L E C T R O N S
 =====================================
  
 Symmetry: ATOM

 Irreducible Representations, including subspecies
 -------------------------------------------------
 S
 P:x  P:y  P:z
 D:z2  D:x2-y2  D:xy  D:xz  D:yz
 F:z3  F:z  F:xyz  F:z2x  F:z2y  F:x  F:y


 Configuration of Valence Electrons
 ==================================

          Occupation Numbers
          -------------------------------------------------
 S        2 1
 P        6
 D        10
 F        14
          -------------------------------------------------

 Total:   33

 Net Charge: 0 (Nuclei minus Electrons)

 Preset values for MO occupations will be applied through SCF cycle no. 1000000
 Thereafter, the program will assign electrons to MOs that are spatially
 similar to the occupied MOs in a "reference" cycle ("KeepOrbitals").
 The reference cycle is always the PREVIOUS cycle: it will evolve with
 the SCF procedure.



 ================================
 (Slater-type)  F U N C T I O N S  ***  (Basis and Fit)  ***
 ================================
  

 Atom Type    1  (Au)
 ==============

 Valence Basis Sets:  21
 -----------------------
   1 S   57.000000
   2 S   36.650000
   3 S   21.050000
   4 S   12.400000
   2 P   39.650000
   3 P   17.950000
   4 P   12.550000
   3 D   22.100000
   4 D   11.200000
   5 S    7.000000
   5 S    4.600000
   6 S    2.850000
   6 S    1.510000
   5 P    6.000000
   5 P    3.700000
   5 D    4.350000
   5 D    2.000000
   4 F   16.150000
   4 F    8.900000
   4 F    4.900000
   6 P    1.950000

 Frozen Core Shells
 ------------------
    S:  4
    P:  3
    D:  2


 BAS: List of all Elementary Cartesian Basis Functions
 =====================================================

 The numbering in the list below (to the right of the function characteristics) is referred
 to in print-outs of MO eigenvectors and Mulliken populations in the BAS representation
 (as contrasted to the SFO representation).

 Notes:
 1. The functions are characterized by a polynomial prefactor (powers of x,y,z and r) and
    an exponential decay factor alpha.
 2. Since the basis sets are specific for an atom TYPE, the individual functions occur on
    all atoms of that type.
 3. The word 'Core' in the left margin signals that it is a Core Function (CF) : not a
    degree of freedom in the valence set, but only used to ensure orthogonalization of
    the other valence basis functions on the frozen Core Orbitals.


 (power of) X  Y  Z  R     Alpha  on Atom
            ==========     =====     ==========

 Au                                   1
                                  ---------------------------------------------------------------------------
    Core    0  0  0  0    57.000      1
    Core    0  0  0  1    36.650      2
    Core    0  0  0  2    21.050      3
    Core    0  0  0  3    12.400      4
    Core    1  0  0  0    39.650      5
    Core    0  1  0  0    39.650      6
    Core    0  0  1  0    39.650      7
    Core    1  0  0  1    17.950      8
    Core    0  1  0  1    17.950      9
    Core    0  0  1  1    17.950     10
    Core    1  0  0  2    12.550     11
    Core    0  1  0  2    12.550     12
    Core    0  0  1  2    12.550     13
    Core    2  0  0  0    22.100     14
    Core    1  1  0  0    22.100     15
    Core    1  0  1  0    22.100     16
    Core    0  2  0  0    22.100     17
    Core    0  1  1  0    22.100     18
    Core    0  0  2  0    22.100     19
    Core    2  0  0  1    11.200     20
    Core    1  1  0  1    11.200     21
    Core    1  0  1  1    11.200     22
    Core    0  2  0  1    11.200     23
    Core    0  1  1  1    11.200     24
    Core    0  0  2  1    11.200     25
            0  0  0  4     7.000     26
            0  0  0  4     4.600     27
            0  0  0  5     2.850     28
            0  0  0  5     1.510     29
            1  0  0  3     6.000     30
            0  1  0  3     6.000     31
            0  0  1  3     6.000     32
            1  0  0  3     3.700     33
            0  1  0  3     3.700     34
            0  0  1  3     3.700     35
            2  0  0  2     4.350     36
            1  1  0  2     4.350     37
            1  0  1  2     4.350     38
            0  2  0  2     4.350     39
            0  1  1  2     4.350     40
            0  0  2  2     4.350     41
            2  0  0  2     2.000     42
            1  1  0  2     2.000     43
            1  0  1  2     2.000     44
            0  2  0  2     2.000     45
            0  1  1  2     2.000     46
            0  0  2  2     2.000     47
            3  0  0  0    16.150     48
            2  1  0  0    16.150     49
            2  0  1  0    16.150     50
            1  2  0  0    16.150     51
            1  1  1  0    16.150     52
            1  0  2  0    16.150     53
            0  3  0  0    16.150     54
            0  2  1  0    16.150     55
            0  1  2  0    16.150     56
            0  0  3  0    16.150     57
            3  0  0  0     8.900     58
            2  1  0  0     8.900     59
            2  0  1  0     8.900     60
            1  2  0  0     8.900     61
            1  1  1  0     8.900     62
            1  0  2  0     8.900     63
            0  3  0  0     8.900     64
            0  2  1  0     8.900     65
            0  1  2  0     8.900     66
            0  0  3  0     8.900     67
            3  0  0  0     4.900     68
            2  1  0  0     4.900     69
            2  0  1  0     4.900     70
            1  2  0  0     4.900     71
            1  1  1  0     4.900     72
            1  0  2  0     4.900     73
            0  3  0  0     4.900     74
            0  2  1  0     4.900     75
            0  1  2  0     4.900     76
            0  0  3  0     4.900     77
            1  0  0  4     1.950     78
            0  1  0  4     1.950     79
            0  0  1  4     1.950     80

 Total number of charge fitting functions (nprimf)       327
 Total number of Cartesian basis functions (naos)         80
 Total number of Cartesian core functions  (ncos)         25



 BAS: List of all Elementary Cartesian Basis Functions
 =====================================================

 The numbering in the list below (to the right of the function characteristics) is referred
 to in print-outs of MO eigenvectors and Mulliken populations in the BAS representation
 (as contrasted to the SFO representation).

 Notes:
 1. The functions are characterized by a polynomial prefactor (powers of x,y,z and r) and
    an exponential decay factor alpha.
 2. Since the basis sets are specific for an atom TYPE, the individual functions occur on
    all atoms of that type.
 3. The word 'Core' in the left margin signals that it is a Core Function (CF) : not a
    degree of freedom in the valence set, but only used to ensure orthogonalization of
    the other valence basis functions on the frozen Core Orbitals.


 (power of) X  Y  Z  R     Alpha  on Atom
            ==========     =====     ==========

 Au                                   1
                                  ---------------------------------------------------------------------------
    Core    0  0  0  0    57.000      1
    Core    0  0  0  1    36.650      2
    Core    0  0  0  2    21.050      3
    Core    0  0  0  3    12.400      4
    Core    1  0  0  0    39.650      5
    Core    0  1  0  0    39.650      6
    Core    0  0  1  0    39.650      7
    Core    1  0  0  1    17.950      8
    Core    0  1  0  1    17.950      9
    Core    0  0  1  1    17.950     10
    Core    1  0  0  2    12.550     11
    Core    0  1  0  2    12.550     12
    Core    0  0  1  2    12.550     13
    Core    2  0  0  0    22.100     14
    Core    1  1  0  0    22.100     15
    Core    1  0  1  0    22.100     16
    Core    0  2  0  0    22.100     17
    Core    0  1  1  0    22.100     18
    Core    0  0  2  0    22.100     19
    Core    2  0  0  1    11.200     20
    Core    1  1  0  1    11.200     21
    Core    1  0  1  1    11.200     22
    Core    0  2  0  1    11.200     23
    Core    0  1  1  1    11.200     24
    Core    0  0  2  1    11.200     25
            0  0  0  4     7.000     26
            0  0  0  4     4.600     27
            0  0  0  5     2.850     28
            0  0  0  5     1.510     29
            1  0  0  3     6.000     30
            0  1  0  3     6.000     31
            0  0  1  3     6.000     32
            1  0  0  3     3.700     33
            0  1  0  3     3.700     34
            0  0  1  3     3.700     35
            2  0  0  2     4.350     36
            1  1  0  2     4.350     37
            1  0  1  2     4.350     38
            0  2  0  2     4.350     39
            0  1  1  2     4.350     40
            0  0  2  2     4.350     41
            2  0  0  2     2.000     42
            1  1  0  2     2.000     43
            1  0  1  2     2.000     44
            0  2  0  2     2.000     45
            0  1  1  2     2.000     46
            0  0  2  2     2.000     47
            3  0  0  0    16.150     48
            2  1  0  0    16.150     49
            2  0  1  0    16.150     50
            1  2  0  0    16.150     51
            1  1  1  0    16.150     52
            1  0  2  0    16.150     53
            0  3  0  0    16.150     54
            0  2  1  0    16.150     55
            0  1  2  0    16.150     56
            0  0  3  0    16.150     57
            3  0  0  0     8.900     58
            2  1  0  0     8.900     59
            2  0  1  0     8.900     60
            1  2  0  0     8.900     61
            1  1  1  0     8.900     62
            1  0  2  0     8.900     63
            0  3  0  0     8.900     64
            0  2  1  0     8.900     65
            0  1  2  0     8.900     66
            0  0  3  0     8.900     67
            3  0  0  0     4.900     68
            2  1  0  0     4.900     69
            2  0  1  0     4.900     70
            1  2  0  0     4.900     71
            1  1  1  0     4.900     72
            1  0  2  0     4.900     73
            0  3  0  0     4.900     74
            0  2  1  0     4.900     75
            0  1  2  0     4.900     76
            0  0  3  0     4.900     77
            1  0  0  4     1.950     78
            0  1  0  4     1.950     79
            0  0  1  4     1.950     80
1
 ***************************************************************************************************



                                              ***********************
                                              *  T E C H N I C A L  *
                                              ***********************
  



 =============================================================
 P A R A L L E L I Z A T I O N  and  V E C T O R I Z A T I O N
 =============================================================
  
 Nr of parallel processes:                                1
 Maximum vector length in NumInt loops:                 128



 =====================
 S C F   U P D A T E S
 =====================
  
 Max. nr. of cycles:                               300
 Convergence criterion:                              0.0000000100
   secondary criterion:                              0.0000000100

 Mix parameter (when DIIS does not apply):           0.2000000000
 Special mix parameter for the first cycle:          1.0000000000
 Mixed ADIIS+SDIIS will be used                  
    Max number of expansion vectors:                10
    Pure ADIIS when Max([F,P]) is above              0.1000000000
    Pure SDIIS when Max([F,P]) is below              0.0010000000
 Automatic ElectronSmearing (in case of problematic SCF convergence) disabled



 =================
 P R E C I S I O N  ***  (General: NumInt, NeglectFunctionTails, ...)  ***
 =================
  

 NumInt:           Target precision:                12.0000000000
 -------           Initial precision:               10.0000000000
                   Min. precision (optimization):   10.0000000000

 Neglect Functions:          Basis functions:        0.1000000000E-13
 ------------------          Fit functions:          0.1000000000E-13



 ===========================
 L I N E A R   S C A L I N G
 ===========================
  

 Cut-off radii density fit:                        0.1000000000E-97
 Overlap cut-off criterion AO matrix elements:     0.1000000000E-97
 Cut-offs for Coulomb potential and fitted density:0.1000000000E-97
 Cut-off criterion for Coulomb multipole terms:    0.1000000000E-97
 Progressive Convergence parameter:                 0.000000000    
1
 ***************************************************************************************************



                                            ***************************
                                            *  C O M P U T A T I O N  *
                                            ***************************
  

 Number of elements of the density matrix on this node (used, total):      3240      3240



 ===========================================
 Numerical Integration : Fuzzy Cells (Becke)
 ===========================================
  
 Becke grid quality: VERYGOOD       
  
 Lebedev angular grid order:             min:  13 max:  41
 Nr. of radial points:                   min: 123 max: 123

 Total nr. of points:        123
 Nr. of blocks:                1
 Block length:               123
 Nr. of dummy points:          0


 Test of Precision of the Numerical Integration Grid
 ===================================================

 Integral of the Total Core Density:                  45.99999991226612
 Relative Error:                                      -1.907E-09



 ========================
 Density Fitting (zlmFit)
 ========================
  
 ZlmFit Fit Quality: VERYGOOD       
  
 Max L-expansion:                        min:   0 max:   0
 Nr. of radial interpolation points:     min: 270 max: 270



 =====
 S C F  ***  ScaSCF  ***
 =====
  

 CYCLE    1
 SCF Error: norm([F,P])=      0.000000000000, max([F,P])=      0.000000000000
 orbitals (Q,E):
 ---------------
 S :1...4            ( 2.00   -36.7762)  ( 1.00   -21.6820)  ( 0.00   -12.9085)  ( 0.00    -7.1191)
 P :1...3            ( 6.00   -33.0866)  ( 0.00   -18.4007)  ( 0.00    -9.4584)
 D :1...2            (10.00   -25.1484)  ( 0.00   -11.3803)
[...]
  Coordinates
    Atom         X           Y           Z   (Angstrom)
    1.O         0.000000    0.000000    0.000000
 <Feb04-2021> <20:26:28>  >>>> CORORT
 <Feb04-2021> <20:26:28>  >>>> CLSMAT
 <Feb04-2021> <20:26:28>  >>>> ORTHON
 <Feb04-2021> <20:26:28>  >>>> GENPT
 <Feb04-2021> <20:26:28>  Block Length=  68
 <Feb04-2021> <20:26:28>  >>>> PTBAS
 <Feb04-2021> <20:26:28>  >>>> CYCLE
 <Feb04-2021> <20:26:28>              |Error|         MaxErr       Wt(A-DIIS)
 <Feb04-2021> <20:26:28>      1      0.00000000      0.00000000
 <Feb04-2021> <20:26:28>      2      2.51022395      1.83694100
 <Feb04-2021> <20:26:28>      3      2.38195714      1.61935802    100.0
 <Feb04-2021> <20:26:28>      4      0.46758430      0.27634710    100.0
 <Feb04-2021> <20:26:28>      5      0.50410652      0.30498859    100.0
 <Feb04-2021> <20:26:28>      6      0.01247625      0.00764533      6.7
 <Feb04-2021> <20:26:29>      7      0.00085022      0.00051605      0.0
 <Feb04-2021> <20:26:29>      8      0.00000244      0.00000146      0.0
 <Feb04-2021> <20:26:29>      9      0.00000001      0.00000000      0.0
 <Feb04-2021> <20:26:29>  SCF converged
 <Feb04-2021> <20:26:29>     10      0.00000000      0.00000000      0.0
 <Feb04-2021> <20:26:29>  >>>> POPAN
 <Feb04-2021> <20:26:29>  >>>> DEBYE
 <Feb04-2021> <20:26:29>  NORMAL TERMINATION
 <Feb04-2021> <20:26:29>  END
 <Feb04-2021> <20:26:29>  DIRAC 2019  RunTime: Feb04-2021 20:26:29  Nodes: 1  Procs: 1
 <Feb04-2021> <20:26:29>  NORMAL TERMINATION
 <Feb04-2021> <20:26:29>  END
 <Feb04-2021> <20:26:29>  ADF 2019  RunTime: Feb04-2021 20:26:29  Nodes: 1  Procs: 1
 <Feb04-2021> <20:26:29>  Carbon (DZ, 1s frozen)
 <Feb04-2021> <20:26:29>  RunType   : CREATE
 <Feb04-2021> <20:26:29>  Net Charge: 0 (Nuclei minus Electrons)
 <Feb04-2021> <20:26:29>  Symmetry  : ATOM
  Coordinates
    Atom         X           Y           Z   (Angstrom)
    1.C         0.000000    0.000000    0.000000
 <Feb04-2021> <20:26:29>  >>>> CORORT
 <Feb04-2021> <20:26:29>  >>>> CLSMAT
 <Feb04-2021> <20:26:29>  >>>> ORTHON
 <Feb04-2021> <20:26:29>  >>>> GENPT
 <Feb04-2021> <20:26:29>  Block Length=  68
 <Feb04-2021> <20:26:29>  >>>> PTBAS
 <Feb04-2021> <20:26:29>  >>>> CYCLE
 <Feb04-2021> <20:26:30>              |Error|         MaxErr       Wt(A-DIIS)
 <Feb04-2021> <20:26:30>      1      0.00000000      0.00000000
 <Feb04-2021> <20:26:30>      2      0.96385221      0.85255436
 <Feb04-2021> <20:26:30>      3      0.69816270      0.60759186    100.0
 <Feb04-2021> <20:26:30>      4      0.25244702      0.20719292    100.0
 <Feb04-2021> <20:26:30>      5      0.19639955      0.16352478    100.0
 <Feb04-2021> <20:26:30>      6      0.03180040      0.02617408     25.4
 <Feb04-2021> <20:26:30>      7      0.00638036      0.00527666      4.3
 <Feb04-2021> <20:26:30>      8      0.00018258      0.00015050      0.0
 <Feb04-2021> <20:26:30>      9      0.00000052      0.00000043      0.0
 <Feb04-2021> <20:26:30>     10      0.00000000      0.00000000      0.0
 <Feb04-2021> <20:26:30>  SCF converged
 <Feb04-2021> <20:26:30>     11      0.00000000      0.00000000      0.0
 <Feb04-2021> <20:26:30>  >>>> POPAN
 <Feb04-2021> <20:26:30>  >>>> DEBYE
 <Feb04-2021> <20:26:30>  NORMAL TERMINATION
 <Feb04-2021> <20:26:30>  END
 <Feb04-2021> <20:26:30>  DIRAC 2019  RunTime: Feb04-2021 20:26:30  Nodes: 1  Procs: 1
 <Feb04-2021> <20:26:30>  NORMAL TERMINATION
 <Feb04-2021> <20:26:30>  END
 <Feb04-2021> <20:26:31>  ADF 2019  RunTime: Feb04-2021 20:26:31  Nodes: 1  Procs: 1
 <Feb04-2021> <20:26:31>  Sulphur (DZ, 1s frozen)
 <Feb04-2021> <20:26:31>  RunType   : CREATE
 <Feb04-2021> <20:26:31>  Net Charge: 0 (Nuclei minus Electrons)
 <Feb04-2021> <20:26:31>  Symmetry  : ATOM
  Coordinates
    Atom         X           Y           Z   (Angstrom)
    1.S         0.000000    0.000000    0.000000
 <Feb04-2021> <20:26:31>  >>>> CORORT
 <Feb04-2021> <20:26:31>  >>>> CLSMAT
 <Feb04-2021> <20:26:31>  >>>> ORTHON
 <Feb04-2021> <20:26:31>  >>>> GENPT
 <Feb04-2021> <20:26:31>  Block Length=  81
 <Feb04-2021> <20:26:31>  >>>> PTBAS
 <Feb04-2021> <20:26:31>  >>>> CYCLE
 <Feb04-2021> <20:26:31>              |Error|         MaxErr       Wt(A-DIIS)
 <Feb04-2021> <20:26:31>      1      0.00000000      0.00000000
 <Feb04-2021> <20:26:31>      2     21.51261243      7.94990220    100.0
 <Feb04-2021> <20:26:31>      3      8.52424195      2.62505450    100.0
 <Feb04-2021> <20:26:31>      4      4.38544525      1.60446246    100.0
 <Feb04-2021> <20:26:31>      5      1.43256362      0.55140611    100.0
 <Feb04-2021> <20:26:31>      6      0.89172576      0.34614537    100.0
 <Feb04-2021> <20:26:31>      7      0.16625992      0.07286926     72.6
 <Feb04-2021> <20:26:31>      8      0.10006764      0.04307754     42.5
 <Feb04-2021> <20:26:31>      9      0.01425650      0.00614423      5.2
 <Feb04-2021> <20:26:32>     10      0.00065307      0.00028041      0.0
 <Feb04-2021> <20:26:32>     11      0.00000094      0.00000039      0.0
 <Feb04-2021> <20:26:32>     12      0.00000001      0.00000000      0.0
 <Feb04-2021> <20:26:32>  SCF converged
 <Feb04-2021> <20:26:32>     13      0.00000000      0.00000000      0.0
 <Feb04-2021> <20:26:32>  >>>> POPAN
 <Feb04-2021> <20:26:32>  >>>> DEBYE
 <Feb04-2021> <20:26:32>  NORMAL TERMINATION
 <Feb04-2021> <20:26:32>  END
 <Feb04-2021> <20:26:32>  ADF 2019  RunTime: Feb04-2021 20:26:32  Nodes: 1  Procs: 1
 <Feb04-2021> <20:26:32>  Au25 + Thiol + CYST compounds.
 <Feb04-2021> <20:26:33>  RunType   : SINGLE POINT
 <Feb04-2021> <20:26:33>  WARNING: Restricted Open-Shell calculation, Unrestricted setup may be needed
 <Feb04-2021> <20:26:33>  Net Charge: 0 (Nuclei minus Electrons)
 <Feb04-2021> <20:26:33>  Symmetry  : NOSYM
 <Feb04-2021> <20:26:33>  >>>> FRAGM
  Coordinates
    Atom         X           Y           Z   (Angstrom)
    1.Au        9.748948   10.758472   10.280643
    2.Au        9.353071   10.656494   13.114107
    3.Au       12.087091   10.822554   11.913672
    4.Au       10.354521   13.078941   11.782787
    5.Au       10.558746    8.342494   11.582257
    6.Au        7.489686   12.121320   11.255507
    7.Au        7.633021    9.185284   11.376471
    8.Au       11.804814   12.333224    9.079194
    9.Au       12.070207    9.388118    9.370504
   10.Au        8.902728   13.124464    8.933062
   11.Au        7.387388   10.591332    8.670705
   12.Au        9.200814    8.388334    8.838031
   13.Au       10.100044   10.802063    7.436813
   14.Au        6.384633   10.574421   13.774214
   15.Au        8.520170    7.891860   13.969814
   16.Au       10.729429   13.450037    6.261150
   17.Au       12.993552   10.954473    6.648983
   18.Au       13.486185    7.825956   11.620266
   19.Au       11.404372    6.437493    9.465350
   20.Au        8.156725   15.044054   11.051094
   21.Au        5.867752   13.313385    9.068044
   22.Au       13.306629   13.531401   11.565808
   23.Au       11.745705   12.307191   14.463979
   24.Au        6.232348    7.862698    9.019607
   25.Au        7.751689    8.844463    6.232516
   26.S         9.944034    6.246608   12.860969
   27.S         7.039893    9.025691   15.554785
   28.S         5.299896   12.407992   12.560827
   29.S        14.326415    9.537322    8.140757
   30.S         9.232795   15.067808    7.317268
   31.S        12.113557   12.171526    4.699503
   32.S         9.750366    6.220586    7.625801
   33.S        14.219753    9.797655   12.879767
   34.S        13.182325    5.497432   10.899496
   35.S         5.359506   11.546775    7.458434
   36.S        10.299032   15.601913   12.202690
   37.S         5.834950   15.425510   10.309277
   38.S         9.930434   11.103887   15.563585
   39.S        13.480139   14.237021    9.226386
   40.S        13.885840   13.373478   13.939222
   41.S         9.661971    9.844489    5.093389
   42.S         6.156860    7.105725   11.363406
   43.S         5.476883    8.019350    6.681786
   44.C         8.480630    4.904215    8.261374
   45.C         8.395554    3.733107    7.250898
   46.H         7.513399    5.420521    8.352485
   47.H         8.801068    4.559480    9.255596
   48.N         7.272081    2.845698    7.523977
   49.H         9.345344    3.169170    7.267182
   50.H         8.275425    4.135796    6.230109
   51.C        14.595717    5.154623    9.613041
   52.C        14.049412    4.532640    8.304425
   53.H        15.290676    4.471217   10.128231
   54.H        15.106018    6.101063    9.405702
   55.N        15.056570    4.502960    7.258700
   56.H        13.193890    5.146701    7.966452
   57.H        13.643417    3.526284    8.526780
   58.C        15.585950   10.499967   11.712118
   59.C        16.644307    9.441559   11.352311
   60.H        16.026786   11.345664   12.262366
   61.H        15.084334   10.856486   10.804310
   62.N        17.657087    9.946472   10.422059
   63.H        16.140130    8.574076   10.891547
   64.H        17.152592    9.087732   12.263833
   65.C         6.154729   12.360759    5.875079
   66.C         5.856041   11.524537    4.616177
   67.H         7.236634   12.439510    6.044184
   68.H         5.715997   13.367177    5.791874
   69.N         6.502617   12.068495    3.417981
   70.H         4.767053   11.468103    4.448108
   71.H         6.221435   10.494634    4.764836
   72.C         6.037251   16.658669    8.830697
   73.C         4.954775   16.433157    7.756446
   74.H         7.030482   16.492007    8.394980
   75.H         5.976206   17.668137    9.268491
   76.N         5.112207   17.319073    6.600467
   77.H         3.948416   16.578524    8.183561
   78.H         5.015271   15.384480    7.414562
   79.C         9.587905   15.809631   13.984582
   80.C         8.380005   16.763411   14.013604
   81.H        10.408762   16.201628   14.604663
   82.H         9.305502   14.814458   14.343441
   83.N         7.776376   16.765677   15.365888
   84.H         7.654136   16.433809   13.243895
   85.H         8.710398   17.778003   13.731684
   86.C         5.734331   13.856260   13.764240
   87.C         5.162338   13.626548   15.171133
   88.H         5.309690   14.762521   13.307638
   89.H         6.826389   13.946054   13.801655
   90.N         5.640879   14.701553   16.078372
   91.H         5.467713   12.620893   15.521476
   92.H         4.060374   13.637233   15.120496
   93.C         5.602751    7.739182   15.675441
   94.C         6.125821    6.406012   16.251937
   95.N         5.091489    5.379714   16.356202
   96.H         6.565207    6.579972   17.249430
   97.H         6.935243    6.031413   15.600533
   98.H         5.191755    7.589230   14.670406
   99.H         4.840157    8.192362   16.329631
  100.C        11.329863    6.008035   14.192192
  101.C        11.650799    7.272309   15.018667
  102.H        12.219150    5.659950   13.648024
  103.H        10.953299    5.204423   14.846535
  104.N        12.668305    7.028823   16.022172
  105.H        10.719446    7.639484   15.491753
  106.H        11.997076    8.068168   14.338548
  107.C        10.992395    8.460791    5.091733
  108.C        10.614753    7.280927    4.189860
  109.H        11.118148    8.126810    6.127938
  110.H        11.916741    8.942074    4.743523
  111.N        11.615025    6.193908    4.415267
  112.H        10.665180    7.586392    3.132111
  113.H         9.576747    6.967414    4.415158
  114.C         5.498477    6.168969    6.153005
  115.C         4.474672    5.382980    6.977060
  116.H         6.506733    5.762933    6.287908
  117.H         5.243420    6.169915    5.080282
  118.N         4.565666    3.936717    6.630027
  119.H         3.467716    5.820555    6.822798
  120.H         4.726821    5.482032    8.045910
  121.C         4.369501    7.706436   11.809798
  122.C         3.318872    7.174072   10.815497
  123.H         4.366408    8.804709   11.845031
  124.H         4.179686    7.308599   12.818419
  125.N         1.944049    7.522982   11.180329
  126.H         3.400413    6.075934   10.743281
  127.H         3.534131    7.583734    9.813317
  128.C        14.371206    7.883813    7.158858
  129.C        14.823753    8.028777    5.702673
  130.H        13.362579    7.455437    7.204642
  131.H        15.069777    7.235169    7.700261
  132.N        14.637314    6.702753    5.058178
  133.H        15.891539    8.303245    5.668848
  134.H        14.250344    8.845552    5.216905
  135.C        13.634268   13.268686    4.208987
  136.C        14.851803   12.376354    3.852764
  137.H        13.871484   13.933805    5.047775
  138.H        13.298272   13.869472    3.347594
  139.N        16.115987   13.095440    3.827696
  140.H        14.667581   11.879575    2.883005
  141.H        14.931400   11.577319    4.612488
  142.C        10.501955   16.234067    8.216397
  143.C         9.791205   17.459349    8.818583
  144.H        10.994901   15.647316    8.999362
  145.H        11.242634   16.531180    7.458060
  146.N        10.699624   18.310519    9.598658
  147.H         8.991944   17.118758    9.499064
  148.H         9.324155   18.063532    8.021722
  149.C         8.713963   12.501342   16.076121
  150.C         9.363030   13.479619   17.066076
  151.H         7.859459   11.990254   16.542962
  152.H         8.379181   13.016991   15.169239
  153.N         8.393459   14.551072   17.405962
  154.H        10.298179   13.873189   16.621587
  155.H         9.642760   12.931707   17.981260
  156.C        13.615661   15.210121   14.464686
  157.C        13.319108   15.315524   15.971913
  158.H        14.556531   15.721923   14.204342
  159.H        12.792646   15.616210   13.857599
  160.N        14.346239   14.810676   16.880360
  161.H        12.382810   14.773802   16.187611
  162.H        13.140733   16.384501   16.201230
  163.C        15.228287   13.518691    8.805138
  164.C        15.447096   13.567838    7.287841
  165.H        15.286485   12.487375    9.175951
  166.H        15.951256   14.151185    9.344482
  167.N        16.764462   13.061467    6.840480
  168.H        15.326373   14.600107    6.920231
  169.H        14.674781   12.939669    6.813810
  170.H         4.796920    4.902380   15.505232
  171.H         4.392212    5.465353   17.093048
  172.H         6.473284   14.439277   16.648800
  173.H         4.896901   15.120001   16.647998
  174.H        13.651192    7.151389   15.795362
  175.H        12.426220    6.553711   16.887210
  176.H         8.431405   15.375579   16.770281
  177.H         8.416813   14.824011   18.395403
  178.H        14.435295   13.794251   16.941043
  179.H        15.235954   15.314302   16.891479
  180.H        17.565608   13.593552    7.203259
  181.H        16.881717   12.051132    6.985857
  182.H        17.341338   10.135988    9.469404
  183.H        18.353414   10.594104   10.795164
  184.H        15.005168    5.182907    6.482543
  185.H        15.672278    3.697525    7.178179
  186.H         7.327244    2.274016    8.368836
  187.H         6.332769    3.173566    7.229307
  188.H        11.647528    5.518149    3.639170
  189.H        11.432198    5.709337    5.306676
  190.H         4.404042    3.756855    5.629077
  191.H         3.936437    3.355501    7.201614
  192.H         1.673242    8.503164   11.079888
  193.H         1.533992    7.041813   11.982761
  194.H         6.162893   12.969337    3.074561
  195.H         7.513041   11.929706    3.344611
  196.H         4.832532   18.294845    6.717218
  197.H         5.944803   17.175637    6.024806
  198.H         6.911772   16.188700   15.448928
  199.H         7.673403   17.699131   15.777368
  200.H        11.445147   18.773741    9.070634
  201.H        11.005057   17.904393   10.488880
  202.H        16.290642   13.751365    3.067233
  203.H        16.561060   13.261584    4.743962
  204.H        15.291736    6.535407    4.283365
  205.H        13.646686    6.545713    4.771358
  206.O        16.998232    9.773304   14.833780
  207.C        16.317524    8.844424   15.156281
  208.O        15.689717    7.891477   15.515063
 <Feb04-2021> <20:26:36>  >>>> CORORT
 <Feb04-2021> <20:26:48>  >>>> CLSMAT
 <Feb04-2021> <20:26:56>  >>>> ORTHON
 <Feb04-2021> <20:27:12>  >>>> GENPT
 <Feb04-2021> <20:27:32>  Block Length= 128
 <Feb04-2021> <20:28:35>  >>>> PTBAS
 <Feb04-2021> <20:36:52>  >>>> CYCLE
 <Feb04-2021> <20:44:28>              |Error|         MaxErr       Wt(A-DIIS)
 <Feb04-2021> <20:44:29>      1      8.13783595      0.40616417
 <Feb04-2021> <20:53:07>      2      4.77238773      0.34335190    100.0
 <Feb04-2021> <21:01:51>      3     14.00546401      0.70970209    100.0
 <Feb04-2021> <21:10:48>      4      4.32949578      0.35802408    100.0
 <Feb04-2021> <21:19:32>      5      7.27262365      0.37344642    100.0
 <Feb04-2021> <21:28:14>      6      1.84735864      0.16344032    100.0
 <Feb04-2021> <21:37:19>      7     19.99375099      1.22054635    100.0
 <Feb04-2021> <21:46:16>      8      9.77999427      0.73474246    100.0
 <Feb04-2021> <21:55:09>      9      7.09243452      0.44931306    100.0
 <Feb04-2021> <22:03:55>     10      2.43773249      0.22701527    100.0
 <Feb04-2021> <22:12:39>     11      2.83298347      0.35559895    100.0
 <Feb04-2021> <22:21:24>     12      1.09977357      0.17896420    100.0
 <Feb04-2021> <22:30:11>     13      1.07104876      0.19163596    100.0
 <Feb04-2021> <22:38:58>     14      1.44406314      0.23765388    100.0
 <Feb04-2021> <22:47:45>     15      0.65755904      0.11146942    100.0
 <Feb04-2021> <22:56:31>     16      1.01975287      0.22835887    100.0
 <Feb04-2021> <23:05:16>     17      0.73167164      0.05765649     57.2
 <Feb04-2021> <23:14:02>     18      0.31490263      0.01981163     19.0
 <Feb04-2021> <23:22:47>     19      0.15589079      0.01112298     10.2
 <Feb04-2021> <23:31:32>     20      0.08712854      0.00675532      5.8
 <Feb04-2021> <23:40:17>     21      0.03939627      0.00436085      3.4
 <Feb04-2021> <23:49:01>     22      0.02332251      0.00260752      1.6
 <Feb04-2021> <23:57:47>     23      0.00769665      0.00083954      0.0
 <Feb05-2021> <00:06:32>     24      0.00379206      0.00031078      0.0
 <Feb05-2021> <00:15:18>     25      0.00317261      0.00020444      0.0
 <Feb05-2021> <00:24:03>     26      0.00170727      0.00033622      0.0
 <Feb05-2021> <00:32:49>     27      0.00139072      0.00018721      0.0
 <Feb05-2021> <00:41:34>     28      0.00087294      0.00006402      0.0
 <Feb05-2021> <00:50:18>     29      0.00150266      0.00021840      0.0
 <Feb05-2021> <00:59:03>     30      0.00039426      0.00004191      0.0
 <Feb05-2021> <01:07:47>     31      0.00008369      0.00000931      0.0
 <Feb05-2021> <01:16:31>     32      0.00004527      0.00000301      0.0
 <Feb05-2021> <01:25:15>     33      0.00003736      0.00000436      0.0
 <Feb05-2021> <01:34:03>     34      0.00005564      0.00000456      0.0
 <Feb05-2021> <01:43:03>     35      0.00001255      0.00000175      0.0
 <Feb05-2021> <01:52:03>     36      0.00000617      0.00000050      0.0
 <Feb05-2021> <01:54:11>  SCF converged
 <Feb05-2021> <02:01:09>     37      0.00000844      0.00000075      0.0
 <Feb05-2021> <02:01:25>  WARNING: partially occupied orbitals
 <Feb05-2021> <02:01:25>   Solutions with partially occupied orbitals may not be
 <Feb05-2021> <02:01:25>   lowest in energy. You might consider lowering the
 <Feb05-2021> <02:01:25>   symmetry in the input and explicitly specifying integer
 <Feb05-2021> <02:01:25>   occupations. In that case always check that you obtain
 <Feb05-2021> <02:01:25>   an aufbau solution.
 <Feb05-2021> <02:07:52>  >>>> TOTEN
 <Feb05-2021> <03:49:47>  >>>> POPAN
 <Feb05-2021> <03:49:52>  >>>> DEBYE
 <Feb05-2021> <03:50:18>  >>>> AMETS
 <Feb05-2021> <03:50:48>   Bond Energy         -36.85517730 a.u.
 <Feb05-2021> <03:50:48>   Bond Energy       -1002.88040127 eV
 <Feb05-2021> <03:50:48>   Bond Energy      -23126.98       kcal/mol
 <Feb05-2021> <03:50:48>  >>>> POPUL
 <Feb05-2021> <03:51:28>  NORMAL TERMINATION with warnings
 <Feb05-2021> <03:51:29>  END
