
 *******************************************************************************
 *                                                                             *
 *  -------------------------------------                                      *
 *   Amsterdam Density Functional  (ADF)         2019                          *
 *  -------------------------------------                                      *
 *                                               r74351 2019-04-25             *
 *                                                                             *
 *                                                                             *
 *                            =====================                            *
 *                            |                   |                            *
 *                            |     D I R A C     |                            *
 *                            |                   |                            *
 *                            =====================                            *
 *                                                                             *
 *                                                                             *
 *   Online information and documentation:  https://www.scm.com/support/       *
 *   E-mail:  support@scm.com   info@scm.com                                   *
 *                                                                             *
 *   Scientific publications using ADF results must be properly referenced     *
 *   See the User Manuals (or the web site) for recommended citations          *
 *   The terms and conditions of the End User License Agreement apply to       *
 *   the use of ADF, https://www.scm.com/license-terms/                        *
 *                                                                             *
 **********************  x86_64_linux_intel / intelmpi  ************************
 
 Licensed to: Dr. Emilie Guidez / UC Denver / Denver / CO / USA
 SCM User ID: u20218
  
 DIRAC 2019  RunTime: Feb04-2021 20:26:52  Nodes: 1  Procs: 1

 Temporary files are created in /home/chemistry/limjae/scr/kid_0.937400128

1
 HYDROGEN ATOM RELATIVISTIC, Point Nuc, A and c from libtc   
 N J RN H ZN XION ANUC CLIGHT
 5000    1100.00000000197.36710137  1.00000000  0.00000000    1.007825  0.1370360E+03
  PH   PHI     EPS        DEL        DELRVR
  0.30  0.30     2500.00  0.00001000  0.00001000
 IDIRC  NC1  NDEBU NPRIN  IPUN IRCOR IWCOR
   1   300     0     0     0     0     0
   XALPHA      XLATTER      RNUC
  0.70000000  0.00000000  0.00000000 Point Charge
   XN   XL   XJ      XE          XZ      XDELL
  1.0  0.0  0.5      -1.000       1.000     0.00000
 ICORP=  0  NPCL=  0  DEMP=0.00  PEPS=0.000000
 R(1)=  0.1000000E-08 D=  0.1005080E+01 RNUC=  0.0000000E+00
 converged at cycle   32  DENSITY AVERAGING    0.2400
  MAXIMUM ERROR IN R.V(R) IS   0.79874357E-05
 Q,EY,EV,EZ,ESUM,ETOT,RHO  0.100000E+01 -0.266614E+00 -0.619969E+00 -0.910779E+00 -0.203940E+00 -0.415998E+00  0.337036E-17


 DIRAC CALCULATION
1                    HYDROGEN ATOM RELATIVISTIC, Point Nuc, A and c from libtc


 EXCHANGE COEFFICIENT=  0.7000000           TAIL CORRECTION=  0.           NUCLEAR RADIUS=  0.000E+00
0                       ORBITAL    N    L    J     ELECTRONS     EIGENVALUE                DELTA OF EIGENV.

                          1S1/2  1.0  0.0  0.5     1.000       -0.2039397E+00                 0.2720093E-06


                                        NUCLEAR CHARGE=    1.000000
                            INTEGRAL OF CHARGE DENSITY=    1.000000
                           SUM OF THE ORBITAL ENERGIES=     -0.2039
                                          TOTAL ENERGY=     -0.4160
                                        KINETIC ENERGY=      0.4160
                             NUCLEAR ATTRACTION ENERGY=     -0.9108
                             ELECTRON REPULSION ENERGY=      0.2787
                                       EXCHANGE ENERGY=     -0.2000

 *******************************************************************************

                             D I R A C   E X I T
 NORMAL TERMINATION



 =================
 Timing Statistics
 =================
  
 Total Used :                     CPU=        0.07      System=        0.01     Elapsed=        0.12

 Calls  Section                     ( Mean, Percentage )
 ---------------------------------------------------------------------------------------------------
     2  ><      ................      0.00    0.01             0.00    0.07             0.00    0.01
     1  EXIT PROCEDURE .........      0.07   99.99             0.01   99.93             0.12   99.99


 Currently Open Files (EXIT00)
 ====================

 Unit    Access Format  Status   Type       Ident (file)
 -------------------------------------------------------
   3      SEQ    FORM   TRANSP  NORMAL      LOGFILE
                                          ( logfile )
 
Create H   file=DZ-H
XC
 GGA PBE
End
relativistic ZORA
Corepotentials t12.rel
End

 *******************************************************************************
 *                                                                             *
 *  -------------------------------------                                      *
 *   Amsterdam Density Functional  (ADF)         2019                          *
 *  -------------------------------------                                      *
 *                                               r74351 2019-04-25             *
 *                                                                             *
 *                                                                             *
 *                              =================                              *
 *                              |               |                              *
 *                              |     A D F     |                              *
 *                              |               |                              *
 *                              =================                              *
 *                                                                             *
 *                                                                             *
 *   Online information and documentation:  https://www.scm.com/support/       *
 *   E-mail:  support@scm.com   info@scm.com                                   *
 *                                                                             *
 *   Scientific publications using ADF results must be properly referenced     *
 *   See the User Manuals (or the web site) for recommended citations          *
 *   The terms and conditions of the End User License Agreement apply to       *
 *   the use of ADF, https://www.scm.com/license-terms/                        *
 *                                                                             *
 **********************  x86_64_linux_intel / intelmpi  ************************
 
 Licensed to: Dr. Emilie Guidez / UC Denver / Denver / CO / USA
 SCM User ID: u20218
  
 ADF 2019  RunTime: Feb04-2021 20:26:52  Nodes: 1  Procs: 1

 Temporary files are created in /home/chemistry/limjae/scr/kid_0.874718753

 Hydrogen (DZ)



 ===========================
 A T T A C H E D   F I L E S
 ===========================
  
 CREATE - Data File:    DZ-H
                        Hydrogen (DZ)
 Core Potentials:
         file : t12.rel



 ===============================
 M O D E L   P A R A M E T E R S
 ===============================
  
 DENSITY FUNCTIONAL POTENTIAL (scf)
    LDA:                               PW92                                    == Not Default ==
    Gradient Corrections:              PBEc PBEx                               == Not Default ==

 SPIN  (restricted / unrestr.)
    Molecule:                          Restricted                               

 OTHER ASPECTS
    Relativistic Corrections:          scalar (ZORA,MAPA)                      == Not Default ==

    Nuclear Charge Density Model:      Point Charge Nuclei                      
    Core Treatment:                    Frozen Orbital(s)                        

    Hyperfine or Zeeman Interaction:   ---                                      



 =====================================
 S Y M M E T R Y ,   E L E C T R O N S
 =====================================
  
 Symmetry: ATOM

 Irreducible Representations, including subspecies
 -------------------------------------------------
 S
 P:x  P:y  P:z
 D:z2  D:x2-y2  D:xy  D:xz  D:yz
 F:z3  F:z  F:xyz  F:z2x  F:z2y  F:x  F:y


 Configuration of Valence Electrons
 ==================================

          Occupation Numbers
          -------------------------------------------------
 S        1
 P        0
 D        0
 F        0
          -------------------------------------------------

 Total:   1

 Net Charge: 0 (Nuclei minus Electrons)

 Preset values for MO occupations will be applied through SCF cycle no. 1000000
 Thereafter, the program will assign electrons to MOs that are spatially
 similar to the occupied MOs in a "reference" cycle ("KeepOrbitals").
 The reference cycle is always the PREVIOUS cycle: it will evolve with
 the SCF procedure.



 ================================
 (Slater-type)  F U N C T I O N S  ***  (Basis and Fit)  ***
 ================================
  

 Atom Type    1  (H)
 ==============

 Valence Basis Sets:   2
 -----------------------
   1 S    0.760000
   1 S    1.280000


 BAS: List of all Elementary Cartesian Basis Functions
 =====================================================

 The numbering in the list below (to the right of the function characteristics) is referred
 to in print-outs of MO eigenvectors and Mulliken populations in the BAS representation
 (as contrasted to the SFO representation).

 Notes:
 1. The functions are characterized by a polynomial prefactor (powers of x,y,z and r) and
    an exponential decay factor alpha.
 2. Since the basis sets are specific for an atom TYPE, the individual functions occur on
    all atoms of that type.
 3. The word 'Core' in the left margin signals that it is a Core Function (CF) : not a
    degree of freedom in the valence set, but only used to ensure orthogonalization of
    the other valence basis functions on the frozen Core Orbitals.


 (power of) X  Y  Z  R     Alpha  on Atom
            ==========     =====     ==========

 H                                    1
                                  ---------------------------------------------------------------------------
            0  0  0  0     0.760      1
            0  0  0  0     1.280      2

 Total number of charge fitting functions (nprimf)        50
 Total number of Cartesian basis functions (naos)          2
 Total number of Cartesian core functions  (ncos)          0



 BAS: List of all Elementary Cartesian Basis Functions
 =====================================================

 The numbering in the list below (to the right of the function characteristics) is referred
 to in print-outs of MO eigenvectors and Mulliken populations in the BAS representation
 (as contrasted to the SFO representation).

 Notes:
 1. The functions are characterized by a polynomial prefactor (powers of x,y,z and r) and
    an exponential decay factor alpha.
 2. Since the basis sets are specific for an atom TYPE, the individual functions occur on
    all atoms of that type.
 3. The word 'Core' in the left margin signals that it is a Core Function (CF) : not a
    degree of freedom in the valence set, but only used to ensure orthogonalization of
    the other valence basis functions on the frozen Core Orbitals.


 (power of) X  Y  Z  R     Alpha  on Atom
            ==========     =====     ==========

 H                                    1
                                  ---------------------------------------------------------------------------
            0  0  0  0     0.760      1
            0  0  0  0     1.280      2
1
 ***************************************************************************************************



                                              ***********************
                                              *  T E C H N I C A L  *
                                              ***********************
  



 =============================================================
 P A R A L L E L I Z A T I O N  and  V E C T O R I Z A T I O N
 =============================================================
  
 Nr of parallel processes:                                1
 Maximum vector length in NumInt loops:                 128



 =====================
 S C F   U P D A T E S
 =====================
  
 Max. nr. of cycles:                               300
 Convergence criterion:                              0.0000000100
   secondary criterion:                              0.0000000100

 Mix parameter (when DIIS does not apply):           0.2000000000
 Special mix parameter for the first cycle:          1.0000000000
 Mixed ADIIS+SDIIS will be used                  
    Max number of expansion vectors:                10
    Pure ADIIS when Max([F,P]) is above              0.1000000000
    Pure SDIIS when Max([F,P]) is below              0.0010000000
 Automatic ElectronSmearing (in case of problematic SCF convergence) disabled



 =================
 P R E C I S I O N  ***  (General: NumInt, NeglectFunctionTails, ...)  ***
 =================
  

 NumInt:           Target precision:                12.0000000000
 -------           Initial precision:               10.0000000000
                   Min. precision (optimization):   10.0000000000

 Neglect Functions:          Basis functions:        0.1000000000E-13
 ------------------          Fit functions:          0.1000000000E-13



 ===========================
 L I N E A R   S C A L I N G
 ===========================
  

 Cut-off radii density fit:                        0.1000000000E-97
 Overlap cut-off criterion AO matrix elements:     0.1000000000E-97
 Cut-offs for Coulomb potential and fitted density:0.1000000000E-97
 Cut-off criterion for Coulomb multipole terms:    0.1000000000E-97
 Progressive Convergence parameter:                 0.000000000    
1
 ***************************************************************************************************



                                            ***************************
                                            *  C O M P U T A T I O N  *
                                            ***************************
  

 Number of elements of the density matrix on this node (used, total):         3         3



 ===========================================
 Numerical Integration : Fuzzy Cells (Becke)
 ===========================================
  
 Becke grid quality: VERYGOOD       
  
 Lebedev angular grid order:             min:  13 max:  41
 Nr. of radial points:                   min:  64 max:  64

 Total nr. of points:         64
 Nr. of blocks:                1
 Block length:                64
 Nr. of dummy points:          0


 Test of Precision of the Numerical Integration Grid
 ===================================================

 Integral of the Total Core Density:                   0.00000000000000



 ========================
 Density Fitting (zlmFit)
 ========================
  
 ZlmFit Fit Quality: VERYGOOD       
  
 Max L-expansion:                        min:   0 max:   0
 Nr. of radial interpolation points:     min: 120 max: 120



 =====
 S C F  ***  ScaSCF  ***
 =====
  

 CYCLE    1
 SCF Error: norm([F,P])=      0.000000000000, max([F,P])=      0.000000000000
 orbitals (Q,E):
 ---------------
 S :1...2            ( 1.00    -0.4983)  ( 0.00     0.1718)

 CYCLE    2
 SCF Error: norm([F,P])=      0.033001933656, max([F,P])=      0.033001933656
 orbitals (Q,E):
 ---------------
 S :1...2            ( 1.00    -0.2268)  ( 0.00     0.4005)

 CYCLE    3
  SDIIS (wt  0.000):  0.1528  0.8472
 A-DIIS (wt  1.000):  0.0000  1.0000
  DIIS coefficients:  0.0000  1.0000
 SCF Error: norm([F,P])=      0.005954454000, max([F,P])=      0.005954454000
 orbitals (Q,E):
 ---------------
 S :1...2            ( 1.00    -0.2417)  ( 0.00     0.3884)

 CYCLE    4
  SDIIS (wt  1.000):  0.1463  0.8537
 A-DIIS (wt  0.000):  0.0000  1.0000
  DIIS coefficients:  0.1463  0.8537
 SCF Error: norm([F,P])=      0.001020399433, max([F,P])=      0.001020399433
 orbitals (Q,E):
 ---------------
 S :1...2            ( 1.00    -0.2394)  ( 0.00     0.3902)

 CYCLE    5
  SDIIS (wt  1.000):  0.0014  0.9986
  DIIS coefficients:  0.0014  0.9986
 SCF Error: norm([F,P])=      0.000001436995, max([F,P])=      0.000001436995
 orbitals (Q,E):
 ---------------
 S :1...2            ( 1.00    -0.2394)  ( 0.00     0.3902)

 CYCLE    6
  SDIIS (wt  1.000): -0.0002  1.0002
  DIIS coefficients: -0.0002  1.0002
 SCF Error: norm([F,P])=      0.000000000334, max([F,P])=      0.000000000334
 orbitals (Q,E):
 ---------------
 S :1...2            ( 1.00    -0.2394)  ( 0.00     0.3902)

 SCF CONVERGED

 CYCLE    7
1
 ***************************************************************************************************



                                                *******************
                                                *  R E S U L T S  *
                                                *******************
  
 *** Using FIT density in Focky
  SDIIS (wt  1.000):  0.0000  1.0000
  DIIS coefficients:  0.0000  1.0000
 SCF Error: norm([F,P])=      0.000000000000, max([F,P])=      0.000000000000

 Scaled ZORA Orbital Energies, per Irrep and Spin:
 =================================================
                        Occup              E (au)              E (eV)       Diff (eV) with prev. cycle
                        -----      --------------------        ------       --------------------------
 S
               1        1.000     -0.23939248892723E+00        -6.514               9.37E-14
               2        0.000      0.39021645958604E+00        10.618


 Partially Occupied:
               1 S                -0.23939248892723E+00
  
 LUMO :        2 S                 0.39021645958604E+00
  


 All Electron Calculation, thus no Orbital Energies of the Core Orbitals are calculated



 =======================================
 M U L L I K E N   P O P U L A T I O N S
 =======================================
  
 The survey below gives for each atom:
 a) the total charge (Z minus electrons)
 b) the net spin polarization (nr of electrons spin-A minus spin-B)
 c) for each spin the atomic electron valence density (integrated) per L-value.

 Atom              Charge    Spin density          S         P         D         F
 ----              ------    ------------       ------    ------    ------    ------
 1 H              -0.0000                       1.0000    0.0000    0.0000    0.0000

 Populations of individual BAS functions
 ----------------------------------------
 1 H            0.6465  0.3535

 Gross Charges per Atom (Z minus electrons)
 ==========================================
            -0.0000
 Net Total: -0.00000000



 =======================================================================
 Electrostatic potential at the Nuclei due to electrons and other nuclei
 =======================================================================
  
         Atom                  Potential
         ----                  ---------
     1)   H                   0.94379605
 
 
 ========================
 No memory problems found
 ========================
 
 Maximum number of active allocate calls:         264
 
 *******************************************************************************

                             A D F   E X I T
 NORMAL TERMINATION



 =================
 Timing Statistics
 =================
  
 Total Used :                     CPU=        0.50      System=        0.06     Elapsed=        0.77

 Calls  Section                     ( Mean, Percentage )
 ---------------------------------------------------------------------------------------------------
     3  ><      ................      0.00    1.52             0.00    0.09             0.00    1.43
     1  INIT    ................      0.09   18.88             0.00    6.96             0.11   14.53
     1  GEOMET  ................      0.03    5.59             0.01   22.58             0.07    8.92
     1  INPUTA  ................      0.01    1.49             0.00    1.34             0.01    1.56
     1  MAINSY  ................      0.02    3.50             0.00    6.69             0.04    5.25
     1  SYMFIT  ................      0.00    0.02             0.00    5.19             0.00    0.45
     1  CORORT  ................      0.00    0.45             0.00    0.65             0.00    0.60
     1  SYMORB  ................      0.00    0.28             0.00    1.35             0.00    0.45
     1  CLSMAT  ................      0.01    2.05             0.00    2.05             0.02    2.21
     1  ORTHON  ................      0.01    1.72             0.00    1.83             0.01    1.62
     1  GENPT   ................      0.02    3.61             0.00    2.58             0.03    3.98
     1  PTBAS   ................      0.01    1.78             0.00    1.75             0.02    2.20
     7  FOCKY   ................      0.03   43.65             0.00   20.94             0.04   36.11
     7  FOCKTR  ................      0.00    1.39             0.00    0.41             0.00    2.04
     7  SDIIS   ................      0.00    5.63             0.00    8.16             0.01    8.44
     1  COREPS  ................      0.02    3.15             0.00    8.60             0.03    3.63
     1  POPAN   ................      0.01    1.49             0.00    0.94             0.01    1.78
     1  DEBYE   ................      0.00    0.39             0.00    2.12             0.01    0.76
     1  EXIT PROCEDURE .........      0.02    3.43             0.00    5.77             0.03    4.04


 Currently Open Files (EXIT00)
 ====================

 Unit    Access Format  Status   Type       Ident (file)
 -------------------------------------------------------
   3      SEQ    FORM   TRANSP  NORMAL      LOGFILE
                                          ( logfile )

 ***************************************************************************************************
 (LOGFILE)
 <Feb04-2021> <20:26:52>  DIRAC 2019  RunTime: Feb04-2021 20:26:52  Nodes: 1  Procs: 1
 <Feb04-2021> <20:26:52>  NORMAL TERMINATION
 <Feb04-2021> <20:26:52>  END
 <Feb04-2021> <20:26:52>  ADF 2019  RunTime: Feb04-2021 20:26:52  Nodes: 1  Procs: 1
 <Feb04-2021> <20:26:52>  Hydrogen (DZ)
 <Feb04-2021> <20:26:52>  RunType   : CREATE
 <Feb04-2021> <20:26:52>  Net Charge: 0 (Nuclei minus Electrons)
 <Feb04-2021> <20:26:52>  Symmetry  : ATOM
  Coordinates
    Atom         X           Y           Z   (Angstrom)
    1.H         0.000000    0.000000    0.000000
 <Feb04-2021> <20:26:52>  >>>> CORORT
 <Feb04-2021> <20:26:52>  >>>> CLSMAT
 <Feb04-2021> <20:26:52>  >>>> ORTHON
 <Feb04-2021> <20:26:52>  >>>> GENPT
 <Feb04-2021> <20:26:52>  Block Length=  64
 <Feb04-2021> <20:26:52>  >>>> PTBAS
 <Feb04-2021> <20:26:52>  >>>> CYCLE
 <Feb04-2021> <20:26:52>              |Error|         MaxErr       Wt(A-DIIS)
 <Feb04-2021> <20:26:52>      1      0.00000000      0.00000000
 <Feb04-2021> <20:26:52>      2      0.03300193      0.03300193
 <Feb04-2021> <20:26:52>      3      0.00595445      0.00595445    100.0
 <Feb04-2021> <20:26:52>      4      0.00102040      0.00102040      0.0
 <Feb04-2021> <20:26:52>      5      0.00000144      0.00000144      0.0
 <Feb04-2021> <20:26:52>      6      0.00000000      0.00000000      0.0
 <Feb04-2021> <20:26:52>  SCF converged
 <Feb04-2021> <20:26:53>      7      0.00000000      0.00000000      0.0
 <Feb04-2021> <20:26:53>  >>>> POPAN
 <Feb04-2021> <20:26:53>  >>>> DEBYE
 <Feb04-2021> <20:26:53>  NORMAL TERMINATION
 <Feb04-2021> <20:26:53>  END

 *******************************************************************************
 *                                                                             *
 *  -------------------------------------                                      *
 *   Amsterdam Density Functional  (ADF)         2019                          *
 *  -------------------------------------                                      *
 *                                               r74351 2019-04-25             *
 *                                                                             *
 *                                                                             *
 *                            =====================                            *
 *                            |                   |                            *
 *                            |     D I R A C     |                            *
 *                            |                   |                            *
 *                            =====================                            *
 *                                                                             *
 *                                                                             *
 *   Online information and documentation:  https://www.scm.com/support/       *
 *   E-mail:  support@scm.com   info@scm.com                                   *
 *                                                                             *
 *   Scientific publications using ADF results must be properly referenced     *
 *   See the User Manuals (or the web site) for recommended citations          *
 *   The terms and conditions of the End User License Agreement apply to       *
 *   the use of ADF, https://www.scm.com/license-terms/                        *
 *                                                                             *
 **********************  x86_64_linux_intel / intelmpi  ************************
 
 Licensed to: Dr. Emilie Guidez / UC Denver / Denver / CO / USA
 SCM User ID: u20218
  
 DIRAC 2019  RunTime: Feb04-2021 20:26:53  Nodes: 1  Procs: 1

 Temporary files are created in /home/chemistry/limjae/scr/kid_0.887725488

1
 NITROGEN ATOM 1s CORE RELATIVISTIC, Point Nuc, A and c from 
 N J RN H ZN XION ANUC CLIGHT
 5000    4100.00000000197.36710137  7.00000000  0.00000000   14.003074  0.1370360E+03
  PH   PHI     EPS        DEL        DELRVR
  0.30  0.30     2500.00  0.00001000  0.00001000
 IDIRC  NC1  NDEBU NPRIN  IPUN IRCOR IWCOR
   1   300     0     0     0     0     1
   XALPHA      XLATTER      RNUC
  0.70000000  0.00000000  0.00000000 Point Charge
   XN   XL   XJ      XE          XZ      XDELL
  1.0  0.0  0.5      -5.000       2.000     0.00000
  2.0  0.0  0.5      -1.000       2.000     0.00000
  2.0  1.0  0.5      -1.000       2.000     0.00000
  2.0  1.0  1.5      -1.000       1.000     0.00000
 ICORP=  0  NPCL=  0  DEMP=0.00  PEPS=0.000000
 R(1)=  0.1000000E-08 D=  0.1005080E+01 RNUC=  0.0000000E+00
 converged at cycle   25  DENSITY AVERAGING    0.3000
  MAXIMUM ERROR IN R.V(R) IS   0.97905511E-05
 Q,EY,EV,EZ,ESUM,ETOT,RHO  0.700000E+01 -0.796419E+01 -0.840156E+02 -0.127663E+03 -0.300692E+02 -0.538837E+02  0.270066E-14


 DIRAC CALCULATION
1                    NITROGEN ATOM 1s CORE RELATIVISTIC, Point Nuc, A and c from libtc


 EXCHANGE COEFFICIENT=  0.7000000           TAIL CORRECTION=  0.           NUCLEAR RADIUS=  0.000E+00
0                       ORBITAL    N    L    J     ELECTRONS     EIGENVALUE                DELTA OF EIGENV.

                          1S1/2  1.0  0.0  0.5     2.000       -0.1403720E+02                 0.4993583E-04
                          2S1/2  2.0  0.0  0.5     2.000       -0.6456810E+00                 0.6544571E-05
                          2P1/2  2.0  1.0  0.5     2.000       -0.2347008E+00                 0.5687228E-05
                          2P3/2  2.0  1.0  1.5     1.000       -0.2339893E+00                 0.5679256E-05


                                        NUCLEAR CHARGE=    7.000000
                            INTEGRAL OF CHARGE DENSITY=    7.000000
                           SUM OF THE ORBITAL ENERGIES=    -30.0692
                                          TOTAL ENERGY=    -53.8837
                                        KINETIC ENERGY=     53.9465
                             NUCLEAR ATTRACTION ENERGY=   -127.6627
                             ELECTRON REPULSION ENERGY=     25.8056
                                       EXCHANGE ENERGY=     -5.9731

 *******************************************************************************

                             D I R A C   E X I T
 NORMAL TERMINATION



 =================
 Timing Statistics
 =================
  
 Total Used :                     CPU=        0.10      System=        0.01     Elapsed=        0.17

 Calls  Section                     ( Mean, Percentage )
 ---------------------------------------------------------------------------------------------------
     2  ><      ................      0.00    0.00             0.00    0.03             0.00    0.01
     1  EXIT PROCEDURE .........      0.10  100.00             0.01   99.97             0.17   99.99


 Currently Open Files (EXIT00)
 ====================

 Unit    Access Format  Status   Type       Ident (file)
 -------------------------------------------------------
   3      SEQ    FORM   TRANSP  NORMAL      LOGFILE
                                          ( logfile )
 
Create N   file=DZ-N.1s
XC
 GGA PBE
End
relativistic ZORA
Corepotentials t12.rel
End

 *******************************************************************************
 *                                                                             *
 *  -------------------------------------                                      *
 *   Amsterdam Density Functional  (ADF)         2019                          *
 *  -------------------------------------                                      *
 *                                               r74351 2019-04-25             *
 *                                                                             *
 *                                                                             *
 *                              =================                              *
 *                              |               |                              *
 *                              |     A D F     |                              *
 *                              |               |                              *
 *                              =================                              *
 *                                                                             *
 *                                                                             *
 *   Online information and documentation:  https://www.scm.com/support/       *
 *   E-mail:  support@scm.com   info@scm.com                                   *
 *                                                                             *
 *   Scientific publications using ADF results must be properly referenced     *
 *   See the User Manuals (or the web site) for recommended citations          *
 *   The terms and conditions of the End User License Agreement apply to       *
 *   the use of ADF, https://www.scm.com/license-terms/                        *
 *                                                                             *
 **********************  x86_64_linux_intel / intelmpi  ************************
 
 Licensed to: Dr. Emilie Guidez / UC Denver / Denver / CO / USA
 SCM User ID: u20218
  
 ADF 2019  RunTime: Feb04-2021 20:26:53  Nodes: 1  Procs: 1

 Temporary files are created in /home/chemistry/limjae/scr/kid_0.1133694066

 Nitrogen (DZ, 1s frozen)



 ===========================
 A T T A C H E D   F I L E S
 ===========================
  
 CREATE - Data File:    DZ-N.1s
                        Nitrogen (DZ, 1s frozen)
 Core Potentials:
         file : t12.rel



 ===============================
 M O D E L   P A R A M E T E R S
 ===============================
  
 DENSITY FUNCTIONAL POTENTIAL (scf)
    LDA:                               PW92                                    == Not Default ==
    Gradient Corrections:              PBEc PBEx                               == Not Default ==

 SPIN  (restricted / unrestr.)
    Molecule:                          Restricted                               

 OTHER ASPECTS
    Relativistic Corrections:          scalar (ZORA,MAPA)                      == Not Default ==

    Nuclear Charge Density Model:      Point Charge Nuclei                      
    Core Treatment:                    Frozen Orbital(s)                        

    Hyperfine or Zeeman Interaction:   ---                                      



 =====================================
 S Y M M E T R Y ,   E L E C T R O N S
 =====================================
  
 Symmetry: ATOM

 Irreducible Representations, including subspecies
 -------------------------------------------------
 S
 P:x  P:y  P:z
 D:z2  D:x2-y2  D:xy  D:xz  D:yz
 F:z3  F:z  F:xyz  F:z2x  F:z2y  F:x  F:y


 Configuration of Valence Electrons
 ==================================

          Occupation Numbers
          -------------------------------------------------
 S        2
 P        3
 D        0
 F        0
          -------------------------------------------------

 Total:   5

 Net Charge: 0 (Nuclei minus Electrons)

 Preset values for MO occupations will be applied through SCF cycle no. 1000000
 Thereafter, the program will assign electrons to MOs that are spatially
 similar to the occupied MOs in a "reference" cycle ("KeepOrbitals").
 The reference cycle is always the PREVIOUS cycle: it will evolve with
 the SCF procedure.



 ================================
 (Slater-type)  F U N C T I O N S  ***  (Basis and Fit)  ***
 ================================
  

 Atom Type    1  (N)
 ==============

 Valence Basis Sets:   5
 -----------------------
   1 S    6.380000
   2 S    1.460000
   2 S    2.380000
   2 P    1.120000
   2 P    2.580000

 Frozen Core Shells
 ------------------
    S:  1


 BAS: List of all Elementary Cartesian Basis Functions
 =====================================================

 The numbering in the list below (to the right of the function characteristics) is referred
 to in print-outs of MO eigenvectors and Mulliken populations in the BAS representation
 (as contrasted to the SFO representation).

 Notes:
 1. The functions are characterized by a polynomial prefactor (powers of x,y,z and r) and
    an exponential decay factor alpha.
 2. Since the basis sets are specific for an atom TYPE, the individual functions occur on
    all atoms of that type.
 3. The word 'Core' in the left margin signals that it is a Core Function (CF) : not a
    degree of freedom in the valence set, but only used to ensure orthogonalization of
    the other valence basis functions on the frozen Core Orbitals.


 (power of) X  Y  Z  R     Alpha  on Atom
            ==========     =====     ==========

 N                                    1
                                  ---------------------------------------------------------------------------
    Core    0  0  0  0     6.380      1
            0  0  0  1     1.460      2
            0  0  0  1     2.380      3
            1  0  0  0     1.120      4
            0  1  0  0     1.120      5
            0  0  1  0     1.120      6
            1  0  0  0     2.580      7
            0  1  0  0     2.580      8
            0  0  1  0     2.580      9

 Total number of charge fitting functions (nprimf)        82
 Total number of Cartesian basis functions (naos)          9
 Total number of Cartesian core functions  (ncos)          1



 BAS: List of all Elementary Cartesian Basis Functions
 =====================================================

 The numbering in the list below (to the right of the function characteristics) is referred
 to in print-outs of MO eigenvectors and Mulliken populations in the BAS representation
 (as contrasted to the SFO representation).

 Notes:
 1. The functions are characterized by a polynomial prefactor (powers of x,y,z and r) and
    an exponential decay factor alpha.
 2. Since the basis sets are specific for an atom TYPE, the individual functions occur on
    all atoms of that type.
 3. The word 'Core' in the left margin signals that it is a Core Function (CF) : not a
    degree of freedom in the valence set, but only used to ensure orthogonalization of
    the other valence basis functions on the frozen Core Orbitals.


 (power of) X  Y  Z  R     Alpha  on Atom
            ==========     =====     ==========

 N                                    1
                                  ---------------------------------------------------------------------------
    Core    0  0  0  0     6.380      1
            0  0  0  1     1.460      2
            0  0  0  1     2.380      3
            1  0  0  0     1.120      4
            0  1  0  0     1.120      5
            0  0  1  0     1.120      6
            1  0  0  0     2.580      7
            0  1  0  0     2.580      8
            0  0  1  0     2.580      9
1
 ***************************************************************************************************



                                              ***********************
                                              *  T E C H N I C A L  *
                                              ***********************
  



 =============================================================
 P A R A L L E L I Z A T I O N  and  V E C T O R I Z A T I O N
 =============================================================
  
 Nr of parallel processes:                                1
 Maximum vector length in NumInt loops:                 128



 =====================
 S C F   U P D A T E S
 =====================
  
 Max. nr. of cycles:                               300
 Convergence criterion:                              0.0000000100
   secondary criterion:                              0.0000000100

 Mix parameter (when DIIS does not apply):           0.2000000000
 Special mix parameter for the first cycle:          1.0000000000
 Mixed ADIIS+SDIIS will be used                  
    Max number of expansion vectors:                10
    Pure ADIIS when Max([F,P]) is above              0.1000000000
    Pure SDIIS when Max([F,P]) is below              0.0010000000
 Automatic ElectronSmearing (in case of problematic SCF convergence) disabled



 =================
 P R E C I S I O N  ***  (General: NumInt, NeglectFunctionTails, ...)  ***
 =================
  

 NumInt:           Target precision:                12.0000000000
 -------           Initial precision:               10.0000000000
                   Min. precision (optimization):   10.0000000000

 Neglect Functions:          Basis functions:        0.1000000000E-13
 ------------------          Fit functions:          0.1000000000E-13



 ===========================
 L I N E A R   S C A L I N G
 ===========================
  

 Cut-off radii density fit:                        0.1000000000E-97
 Overlap cut-off criterion AO matrix elements:     0.1000000000E-97
 Cut-offs for Coulomb potential and fitted density:0.1000000000E-97
 Cut-off criterion for Coulomb multipole terms:    0.1000000000E-97
 Progressive Convergence parameter:                 0.000000000    
1
 ***************************************************************************************************



                                            ***************************
                                            *  C O M P U T A T I O N  *
                                            ***************************
  

 Number of elements of the density matrix on this node (used, total):        45        45



 ===========================================
 Numerical Integration : Fuzzy Cells (Becke)
 ===========================================
  
 Becke grid quality: VERYGOOD       
  
 Lebedev angular grid order:             min:  13 max:  41
 Nr. of radial points:                   min:  68 max:  68

 Total nr. of points:         68
 Nr. of blocks:                1
 Block length:                68
 Nr. of dummy points:          0


 Test of Precision of the Numerical Integration Grid
 ===================================================

 Integral of the Total Core Density:                   2.00000004779027
 Relative Error:                                       2.390E-08



 ========================
 Density Fitting (zlmFit)
 ========================
  
 ZlmFit Fit Quality: VERYGOOD       
  
 Max L-expansion:                        min:   0 max:   0
 Nr. of radial interpolation points:     min: 150 max: 150



 =====
 S C F  ***  ScaSCF  ***
 =====
  

 CYCLE    1
 SCF Error: norm([F,P])=      0.000000000000, max([F,P])=      0.000000000000
 orbitals (Q,E):
 ---------------
 S :1...2            ( 2.00    -3.8308)  ( 0.00    -1.5342)
 P :1...2            ( 3.00    -3.5256)  ( 0.00    -1.4645)

 CYCLE    2
 SCF Error: norm([F,P])=      1.549673975551, max([F,P])=      1.258101921759
 orbitals (Q,E):
 ---------------
 S :1...2            ( 2.00    -0.1903)  ( 0.00     1.2168)
 P :1...2            ( 3.00     0.1546)  ( 0.00     1.2047)

 CYCLE    3
  SDIIS (wt  0.000):  0.4674  0.5326
 A-DIIS (wt  1.000):  0.3240  0.6760
  DIIS coefficients:  0.3240  0.6760
 SCF Error: norm([F,P])=      1.360249054281, max([F,P])=      1.048050156299
 orbitals (Q,E):
 ---------------
 S :1...2            ( 2.00    -0.8381)  ( 0.00     0.5861)
 P :1...2            ( 3.00    -0.4109)  ( 0.00     0.4817)

 CYCLE    4
  SDIIS (wt  0.000):  0.1928  0.8072
 A-DIIS (wt  1.000):  0.0000  1.0000
  DIIS coefficients:  0.0000  1.0000
 SCF Error: norm([F,P])=      0.325925918927, max([F,P])=      0.228226698732
 orbitals (Q,E):
 ---------------
 S :1...2            ( 2.00    -0.5797)  ( 0.00     0.7788)
 P :1...2            ( 3.00    -0.1643)  ( 0.00     0.6846)

 CYCLE    5
  SDIIS (wt  0.000):  0.4892  0.5108
 A-DIIS (wt  1.000):  0.4642  0.5358
  DIIS coefficients:  0.4642  0.5358
 SCF Error: norm([F,P])=      0.312119029167, max([F,P])=      0.221835145933
 orbitals (Q,E):
 ---------------
 S :1...2            ( 2.00    -0.6950)  ( 0.00     0.6844)
 P :1...2            ( 3.00    -0.2715)  ( 0.00     0.5814)

 CYCLE    6
  SDIIS (wt  0.928):  0.0359  0.9641
 A-DIIS (wt  0.072):  0.0000  1.0000
  DIIS coefficients:  0.0333  0.9667
 SCF Error: norm([F,P])=      0.011627935283, max([F,P])=      0.008114454643
 orbitals (Q,E):
 ---------------
 S :1...2            ( 2.00    -0.6895)  ( 0.00     0.6886)
 P :1...2            ( 3.00    -0.2663)  ( 0.00     0.5858)

 CYCLE    7
  SDIIS (wt  1.000):  0.0715  0.9285
  DIIS coefficients:  0.0715  0.9285
 SCF Error: norm([F,P])=      0.000895557034, max([F,P])=      0.000636506786
 orbitals (Q,E):
 ---------------
 S :1...2            ( 2.00    -0.6898)  ( 0.00     0.6884)
 P :1...2            ( 3.00    -0.2666)  ( 0.00     0.5855)

 CYCLE    8
  SDIIS (wt  1.000): -0.0084  1.0084
  DIIS coefficients: -0.0084  1.0084
 SCF Error: norm([F,P])=      0.000007431471, max([F,P])=      0.000005244833
 orbitals (Q,E):
 ---------------
 S :1...2            ( 2.00    -0.6898)  ( 0.00     0.6884)
 P :1...2            ( 3.00    -0.2666)  ( 0.00     0.5855)

 CYCLE    9
  SDIIS (wt  1.000):  0.0035  0.9965
  DIIS coefficients:  0.0035  0.9965
 SCF Error: norm([F,P])=      0.000000026230, max([F,P])=      0.000000018481
 orbitals (Q,E):
 ---------------
 S :1...2            ( 2.00    -0.6898)  ( 0.00     0.6884)
 P :1...2            ( 3.00    -0.2666)  ( 0.00     0.5855)

 CYCLE   10
  SDIIS (wt  1.000):  0.0008  0.9992
  DIIS coefficients:  0.0008  0.9992
 SCF Error: norm([F,P])=      0.000000000021, max([F,P])=      0.000000000015
 orbitals (Q,E):
 ---------------
 S :1...2            ( 2.00    -0.6898)  ( 0.00     0.6884)
 P :1...2            ( 3.00    -0.2666)  ( 0.00     0.5855)

 SCF CONVERGED

 CYCLE   11
1
 ***************************************************************************************************



                                                *******************
                                                *  R E S U L T S  *
                                                *******************
  
 *** Using FIT density in Focky
  SDIIS (wt  1.000):  0.0005  0.9995
  DIIS coefficients:  0.0005  0.9995
 SCF Error: norm([F,P])=      0.000000000000, max([F,P])=      0.000000000000

 Scaled ZORA Orbital Energies, per Irrep and Spin:
 =================================================
                        Occup              E (au)              E (eV)       Diff (eV) with prev. cycle
                        -----      --------------------        ------       --------------------------
 S
               1        2.000     -0.68979333234436E+00       -18.770               1.57E-13
               2        0.000      0.68835668824347E+00        18.731
 P
               1        3.000     -0.26655778219350E+00        -7.253               1.57E-13
               2        0.000      0.58549619457877E+00        15.932


 Partially Occupied:
               1 P                -0.26655778219350E+00
  
 HOMO :        1 S                -0.68979333234436E+00
 LUMO :        2 P                 0.58549619457877E+00
  


 Orbital Energies, all Irreps
 ========================================

 Irrep        no.  (spin)   Occup              E (au)                E (eV)
 ---------------------------------------------------------------------------
 S             1             2.00       -0.68979333234436E+00       -18.7702
 P             1             3.00       -0.26655778219350E+00        -7.2534
 P             2             0.00        0.58549619457877E+00        15.9322
 S             2             0.00        0.68835668824347E+00        18.7311


 Scaled ZORA Orbital Energies of the Core Orbitals:
 ==================================================

 (Note that the atoms are grouped by atomtype, see the labels, and may hence NOT be in input order)

 AtomType  Orbital  Atom                   E (au)                        E (eV)
 --------  -------  ----           --------------------        ----------------
 N           1S        1          -0.14166659762581E+02                -385.494



 =======================================
 M U L L I K E N   P O P U L A T I O N S
 =======================================
  
 The survey below gives for each atom:
 a) the total charge (Z minus electrons)
 b) the net spin polarization (nr of electrons spin-A minus spin-B)
 c) for each spin the atomic electron valence density (integrated) per L-value.

 Atom              Charge    Spin density          S         P         D         F
 ----              ------    ------------       ------    ------    ------    ------
 1 N              -0.0000                       2.0000    3.0000    0.0000    0.0000

 Populations of individual BAS functions
 ----------------------------------------
 1 N            0.0005  0.8702  1.1293  0.4947  0.4947  0.4947  0.5053  0.5053  0.5053

 Gross Charges per Atom (Z minus electrons)
 ==========================================
            -0.0000
 Net Total: -0.00000000



 =======================================================================
 Electrostatic potential at the Nuclei due to electrons and other nuclei
 =======================================================================
  
         Atom                  Potential
         ----                  ---------
     1)   N                  18.25311827
 
 
 ========================
 No memory problems found
 ========================
 
 Maximum number of active allocate calls:         319
 
 *******************************************************************************

                             A D F   E X I T
 NORMAL TERMINATION



 =================
 Timing Statistics
 =================
  
 Total Used :                     CPU=        0.63      System=        0.08     Elapsed=        0.97

 Calls  Section                     ( Mean, Percentage )
 ---------------------------------------------------------------------------------------------------
     3  ><      ................      0.00    0.48             0.00    3.42             0.00    0.95
     1  INIT    ................      0.09   13.86             0.01    8.95             0.11   11.16
     1  GEOMET  ................      0.03    4.12             0.01   17.86             0.07    6.94
     1  INPUTA  ................      0.01    0.97             0.00    2.01             0.01    1.18
     1  MAINSY  ................      0.02    3.60             0.00    2.16             0.04    4.51
     1  SYMFIT  ................      0.00    0.19             0.00    1.07             0.00    0.27
     1  CORORT  ................      0.00    0.27             0.00    0.82             0.00    0.49
     1  SYMORB  ................      0.00    0.07             0.00    1.12             0.00    0.24
     1  CLSMAT  ................      0.01    1.22             0.00    3.29             0.02    1.73
     1  ORTHON  ................      0.01    1.31             0.00    0.74             0.01    1.21
     1  GENPT   ................      0.02    3.74             0.00    1.46             0.04    3.85
     1  PTBAS   ................      0.01    1.08             0.00    5.00             0.02    1.85
    11  FOCKY   ................      0.03   52.00             0.00   29.55             0.04   43.95
    11  FOCKTR  ................      0.00    1.88             0.00    2.83             0.00    2.75
    11  SDIIS   ................      0.00    7.14             0.00    7.85             0.01    9.97
     1  COREPS  ................      0.02    2.94             0.01    6.62             0.03    3.13
     1  POPAN   ................      0.01    1.44             0.00    1.26             0.02    1.70
     1  DEBYE   ................      0.00    0.63             0.00    0.18             0.01    0.71
     1  EXIT PROCEDURE .........      0.02    3.07             0.00    3.79             0.03    3.39


 Currently Open Files (EXIT00)
 ====================

 Unit    Access Format  Status   Type       Ident (file)
 -------------------------------------------------------
   3      SEQ    FORM   TRANSP  NORMAL      LOGFILE
                                          ( logfile )

 ***************************************************************************************************
 (LOGFILE)
 <Feb04-2021> <20:26:52>  DIRAC 2019  RunTime: Feb04-2021 20:26:52  Nodes: 1  Procs: 1
 <Feb04-2021> <20:26:52>  NORMAL TERMINATION
 <Feb04-2021> <20:26:52>  END
 <Feb04-2021> <20:26:52>  ADF 2019  RunTime: Feb04-2021 20:26:52  Nodes: 1  Procs: 1
 <Feb04-2021> <20:26:52>  Hydrogen (DZ)
 <Feb04-2021> <20:26:52>  RunType   : CREATE
 <Feb04-2021> <20:26:52>  Net Charge: 0 (Nuclei minus Electrons)
 <Feb04-2021> <20:26:52>  Symmetry  : ATOM
  Coordinates
    Atom         X           Y           Z   (Angstrom)
    1.H         0.000000    0.000000    0.000000
 <Feb04-2021> <20:26:52>  >>>> CORORT
 <Feb04-2021> <20:26:52>  >>>> CLSMAT
 <Feb04-2021> <20:26:52>  >>>> ORTHON
 <Feb04-2021> <20:26:52>  >>>> GENPT
 <Feb04-2021> <20:26:52>  Block Length=  64
 <Feb04-2021> <20:26:52>  >>>> PTBAS
 <Feb04-2021> <20:26:52>  >>>> CYCLE
 <Feb04-2021> <20:26:52>              |Error|         MaxErr       Wt(A-DIIS)
 <Feb04-2021> <20:26:52>      1      0.00000000      0.00000000
 <Feb04-2021> <20:26:52>      2      0.03300193      0.03300193
 <Feb04-2021> <20:26:52>      3      0.00595445      0.00595445    100.0
 <Feb04-2021> <20:26:52>      4      0.00102040      0.00102040      0.0
 <Feb04-2021> <20:26:52>      5      0.00000144      0.00000144      0.0
 <Feb04-2021> <20:26:52>      6      0.00000000      0.00000000      0.0
 <Feb04-2021> <20:26:52>  SCF converged
 <Feb04-2021> <20:26:53>      7      0.00000000      0.00000000      0.0
 <Feb04-2021> <20:26:53>  >>>> POPAN
 <Feb04-2021> <20:26:53>  >>>> DEBYE
 <Feb04-2021> <20:26:53>  NORMAL TERMINATION
 <Feb04-2021> <20:26:53>  END
 <Feb04-2021> <20:26:53>  DIRAC 2019  RunTime: Feb04-2021 20:26:53  Nodes: 1  Procs: 1
 <Feb04-2021> <20:26:53>  NORMAL TERMINATION
 <Feb04-2021> <20:26:53>  END
 <Feb04-2021> <20:26:53>  ADF 2019  RunTime: Feb04-2021 20:26:53  Nodes: 1  Procs: 1
 <Feb04-2021> <20:26:53>  Nitrogen (DZ, 1s frozen)
 <Feb04-2021> <20:26:53>  RunType   : CREATE
 <Feb04-2021> <20:26:53>  Net Charge: 0 (Nuclei minus Electrons)
 <Feb04-2021> <20:26:53>  Symmetry  : ATOM
  Coordinates
    Atom         X           Y           Z   (Angstrom)
    1.N         0.000000    0.000000    0.000000
 <Feb04-2021> <20:26:53>  >>>> CORORT
 <Feb04-2021> <20:26:53>  >>>> CLSMAT
 <Feb04-2021> <20:26:53>  >>>> ORTHON
 <Feb04-2021> <20:26:53>  >>>> GENPT
 <Feb04-2021> <20:26:53>  Block Length=  68
 <Feb04-2021> <20:26:53>  >>>> PTBAS
 <Feb04-2021> <20:26:53>  >>>> CYCLE
 <Feb04-2021> <20:26:53>              |Error|         MaxErr       Wt(A-DIIS)
 <Feb04-2021> <20:26:53>      1      0.00000000      0.00000000
 <Feb04-2021> <20:26:54>      2      1.54967398      1.25810192
 <Feb04-2021> <20:26:54>      3      1.36024905      1.04805016    100.0
 <Feb04-2021> <20:26:54>      4      0.32592592      0.22822670    100.0
 <Feb04-2021> <20:26:54>      5      0.31211903      0.22183515    100.0
 <Feb04-2021> <20:26:54>      6      0.01162794      0.00811445      7.2
 <Feb04-2021> <20:26:54>      7      0.00089556      0.00063651      0.0
 <Feb04-2021> <20:26:54>      8      0.00000743      0.00000524      0.0
 <Feb04-2021> <20:26:54>      9      0.00000003      0.00000002      0.0
 <Feb04-2021> <20:26:54>     10      0.00000000      0.00000000      0.0
 <Feb04-2021> <20:26:54>  SCF converged
 <Feb04-2021> <20:26:54>     11      0.00000000      0.00000000      0.0
 <Feb04-2021> <20:26:54>  >>>> POPAN
 <Feb04-2021> <20:26:54>  >>>> DEBYE
 <Feb04-2021> <20:26:54>  NORMAL TERMINATION
 <Feb04-2021> <20:26:54>  END

 *******************************************************************************
 *                                                                             *
 *  -------------------------------------                                      *
 *   Amsterdam Density Functional  (ADF)         2019                          *
 *  -------------------------------------                                      *
 *                                               r74351 2019-04-25             *
 *                                                                             *
 *                                                                             *
 *                            =====================                            *
 *                            |                   |                            *
 *                            |     D I R A C     |                            *
 *                            |                   |                            *
 *                            =====================                            *
 *                                                                             *
 *                                                                             *
 *   Online information and documentation:  https://www.scm.com/support/       *
 *   E-mail:  support@scm.com   info@scm.com                                   *
 *                                                                             *
 *   Scientific publications using ADF results must be properly referenced     *
 *   See the User Manuals (or the web site) for recommended citations          *
 *   The terms and conditions of the End User License Agreement apply to       *
 *   the use of ADF, https://www.scm.com/license-terms/                        *
 *                                                                             *
 **********************  x86_64_linux_intel / intelmpi  ************************
 
 Licensed to: Dr. Emilie Guidez / UC Denver / Denver / CO / USA
 SCM User ID: u20218
  
 DIRAC 2019  RunTime: Feb04-2021 20:26:54  Nodes: 1  Procs: 1

 Temporary files are created in /home/chemistry/limjae/scr/kid_0.984935642

1
 GOLD ATOM 4d CORE RELATIVISTIC, Point Nuc, A and c from libt
 N J RN H ZN XION ANUC CLIGHT
 5000   22100.00000000197.36710137 79.00000000  0.00000000  196.966551  0.1370360E+03
  PH   PHI     EPS        DEL        DELRVR
  0.30  0.30     2500.00  0.00001000  0.00001000
 IDIRC  NC1  NDEBU NPRIN  IPUN IRCOR IWCOR
   1   300     0     0     0     0    14
   XALPHA      XLATTER      RNUC
  0.70000000  0.00000000  0.00000000 Point Charge
   XN   XL   XJ      XE          XZ      XDELL
  1.0  0.0  0.5   -2600.000       2.000     0.00000
  2.0  0.0  0.5    -425.000       2.000     0.00000
  2.0  1.0  0.5    -425.000       2.000     0.00000
  2.0  1.0  1.5    -425.000       4.000     0.00000
  3.0  0.0  0.5    -100.000       2.000     0.00000
  3.0  1.0  0.5    -100.000       2.000     0.00000
  3.0  1.0  1.5    -100.000       4.000     0.00000
  3.0  2.0  1.5     -80.000       4.000     0.00000
  3.0  2.0  2.5     -80.000       6.000     0.00000
  4.0  0.0  0.5     -22.000       2.000     0.00000
  4.0  1.0  0.5     -20.000       2.000     0.00000
  4.0  1.0  1.5     -20.000       4.000     0.00000
  4.0  2.0  1.5     -11.000       4.000     0.00000
  4.0  2.0  2.5     -11.000       6.000     0.00000
  4.0  3.0  2.5      -1.000       6.000     0.00000
  4.0  3.0  3.5      -1.000       8.000     0.00000
  5.0  0.0  0.5      -3.000       2.000     0.00000
  5.0  1.0  0.5      -2.200       2.000     0.00000
  5.0  1.0  1.5      -2.200       4.000     0.00000
  5.0  2.0  1.5      -0.500       4.000     0.00000
  5.0  2.0  2.5      -0.500       6.000     0.00000
  6.0  0.0  0.5      -0.200       1.000     0.00000
 ICORP=  0  NPCL=  0  DEMP=0.00  PEPS=0.000000
 R(1)=  0.1000000E-08 D=  0.1005080E+01 RNUC=  0.0000000E+00
 converged at cycle   60  DENSITY AVERAGING    0.0786
  MAXIMUM ERROR IN R.V(R) IS   0.38523360E-05
 Q,EY,EV,EZ,ESUM,ETOT,RHO  0.790000E+02 -0.485545E+03 -0.336404E+05 -0.479937E+05 -0.117486E+05 -0.190466E+05  0.196298E-08


 DIRAC CALCULATION
1                    GOLD ATOM 4d CORE RELATIVISTIC, Point Nuc, A and c from libtc


 EXCHANGE COEFFICIENT=  0.7000000           TAIL CORRECTION=  0.           NUCLEAR RADIUS=  0.000E+00
0                       ORBITAL    N    L    J     ELECTRONS     EIGENVALUE                DELTA OF EIGENV.

                          1S1/2  1.0  0.0  0.5     2.000       -0.2963119E+04                 0.3731460E-04
                          2S1/2  2.0  0.0  0.5     2.000       -0.5226069E+03                 0.3102938E-04
                          2P1/2  2.0  1.0  0.5     2.000       -0.5013071E+03                 0.3249986E-04
                          2P3/2  2.0  1.0  1.5     4.000       -0.4338328E+03                 0.3150316E-04
                          3S1/2  3.0  0.0  0.5     2.000       -0.1233461E+03                 0.2017137E-04
                          3P1/2  3.0  1.0  0.5     2.000       -0.1137481E+03                 0.2099254E-04
                          3P3/2  3.0  1.0  1.5     4.000       -0.9885554E+02                 0.1984570E-04
                          3D3/2  3.0  2.0  1.5     4.000       -0.8287610E+02                 0.2174809E-04
                          3D5/2  3.0  2.0  2.5     6.000       -0.7967162E+02                 0.2135379E-04
                          4S1/2  4.0  0.0  0.5     2.000       -0.2673972E+02                 0.1054160E-04
                          4P1/2  4.0  1.0  0.5     2.000       -0.2264484E+02                 0.1056903E-04
                          4P3/2  4.0  1.0  1.5     4.000       -0.1906321E+02                 0.9669504E-05
                          4D3/2  4.0  2.0  1.5     4.000       -0.1235180E+02                 0.9615342E-05
                          4D5/2  4.0  2.0  2.5     6.000       -0.1168427E+02                 0.9341815E-05
                          4F5/2  4.0  3.0  2.5     6.000       -0.3062221E+01                 0.8653601E-05
                          4F7/2  4.0  3.0  3.5     8.000       -0.2921300E+01                 0.8510675E-05
                          5S1/2  5.0  0.0  0.5     2.000       -0.3963776E+01                 0.3355907E-05
                          5P1/2  5.0  1.0  0.5     2.000       -0.2629660E+01                 0.2984355E-05
                          5P3/2  5.0  1.0  1.5     4.000       -0.2015087E+01                 0.2530381E-05
                          5D3/2  5.0  2.0  1.5     4.000       -0.2662248E+00                 0.1434098E-05
                          5D5/2  5.0  2.0  2.5     6.000       -0.2094938E+00                 0.1305568E-05
                          6S1/2  6.0  0.0  0.5     1.000       -0.1940684E+00                 0.3484321E-06


                                        NUCLEAR CHARGE=   79.000000
                            INTEGRAL OF CHARGE DENSITY=   79.000000
                           SUM OF THE ORBITAL ENERGIES= -11748.5839
                                          TOTAL ENERGY= -19046.6065
                                        KINETIC ENERGY=  21891.8398
                             NUCLEAR ATTRACTION ENERGY= -47993.6963
                             ELECTRON REPULSION ENERGY=   7419.4090
                                       EXCHANGE ENERGY=   -364.1591

 *******************************************************************************

                             D I R A C   E X I T
 NORMAL TERMINATION



 =================
 Timing Statistics
 =================
  
 Total Used :                     CPU=        0.60      System=        0.02     Elapsed=        0.76

 Calls  Section                     ( Mean, Percentage )
 ---------------------------------------------------------------------------------------------------
     2  ><      ................      0.00    0.00             0.00    0.03             0.00    0.00
     1  EXIT PROCEDURE .........      0.60  100.00             0.02   99.97             0.76  100.00


 Currently Open Files (EXIT00)
 ====================

 Unit    Access Format  Status   Type       Ident (file)
 -------------------------------------------------------
   3      SEQ    FORM   TRANSP  NORMAL      LOGFILE
                                          ( logfile )
 
Create Au   file=DZ-Au.4d
XC
 GGA PBE
End
relativistic ZORA
Corepotentials t12.rel
End

 *******************************************************************************
 *                                                                             *
 *  -------------------------------------                                      *
 *   Amsterdam Density Functional  (ADF)         2019                          *
 *  -------------------------------------                                      *
 *                                               r74351 2019-04-25             *
 *                                                                             *
 *                                                                             *
 *                              =================                              *
 *                              |               |                              *
 *                              |     A D F     |                              *
 *                              |               |                              *
 *                              =================                              *
 *                                                                             *
 *                                                                             *
 *   Online information and documentation:  https://www.scm.com/support/       *
 *   E-mail:  support@scm.com   info@scm.com                                   *
 *                                                                             *
 *   Scientific publications using ADF results must be properly referenced     *
 *   See the User Manuals (or the web site) for recommended citations          *
 *   The terms and conditions of the End User License Agreement apply to       *
 *   the use of ADF, https://www.scm.com/license-terms/                        *
 *                                                                             *
 **********************  x86_64_linux_intel / intelmpi  ************************
 
 Licensed to: Dr. Emilie Guidez / UC Denver / Denver / CO / USA
 SCM User ID: u20218
  
 ADF 2019  RunTime: Feb04-2021 20:26:55  Nodes: 1  Procs: 1

 Temporary files are created in /home/chemistry/limjae/scr/kid_0.1960995592

 Gold (DZ, 4d frozen)



 ===========================
 A T T A C H E D   F I L E S
 ===========================
  
 CREATE - Data File:    DZ-Au.4d
                        Gold (DZ, 4d frozen)
 Core Potentials:
         file : t12.rel



 ===============================
 M O D E L   P A R A M E T E R S
 ===============================
  
 DENSITY FUNCTIONAL POTENTIAL (scf)
    LDA:                               PW92                                    == Not Default ==
    Gradient Corrections:              PBEc PBEx                               == Not Default ==

 SPIN  (restricted / unrestr.)
    Molecule:                          Restricted                               

 OTHER ASPECTS
    Relativistic Corrections:          scalar (ZORA,MAPA)                      == Not Default ==

    Nuclear Charge Density Model:      Point Charge Nuclei                      
    Core Treatment:                    Frozen Orbital(s)                        

    Hyperfine or Zeeman Interaction:   ---                                      



 =====================================
 S Y M M E T R Y ,   E L E C T R O N S
 =====================================
  
 Symmetry: ATOM

 Irreducible Representations, including subspecies
 -------------------------------------------------
 S
 P:x  P:y  P:z
 D:z2  D:x2-y2  D:xy  D:xz  D:yz
 F:z3  F:z  F:xyz  F:z2x  F:z2y  F:x  F:y


 Configuration of Valence Electrons
 ==================================

          Occupation Numbers
          -------------------------------------------------
 S        2 1
 P        6
 D        10
 F        14
          -------------------------------------------------

 Total:   33

 Net Charge: 0 (Nuclei minus Electrons)

 Preset values for MO occupations will be applied through SCF cycle no. 1000000
 Thereafter, the program will assign electrons to MOs that are spatially
 similar to the occupied MOs in a "reference" cycle ("KeepOrbitals").
 The reference cycle is always the PREVIOUS cycle: it will evolve with
 the SCF procedure.



 ================================
 (Slater-type)  F U N C T I O N S  ***  (Basis and Fit)  ***
 ================================
  

 Atom Type    1  (Au)
 ==============

 Valence Basis Sets:  21
 -----------------------
   1 S   57.000000
   2 S   36.650000
   3 S   21.050000
   4 S   12.400000
   2 P   39.650000
   3 P   17.950000
   4 P   12.550000
   3 D   22.100000
   4 D   11.200000
   5 S    7.000000
   5 S    4.600000
   6 S    2.850000
   6 S    1.510000
   5 P    6.000000
   5 P    3.700000
   5 D    4.350000
   5 D    2.000000
   4 F   16.150000
   4 F    8.900000
   4 F    4.900000
   6 P    1.950000

 Frozen Core Shells
 ------------------
    S:  4
    P:  3
    D:  2


 BAS: List of all Elementary Cartesian Basis Functions
 =====================================================

 The numbering in the list below (to the right of the function characteristics) is referred
 to in print-outs of MO eigenvectors and Mulliken populations in the BAS representation
 (as contrasted to the SFO representation).

 Notes:
 1. The functions are characterized by a polynomial prefactor (powers of x,y,z and r) and
    an exponential decay factor alpha.
 2. Since the basis sets are specific for an atom TYPE, the individual functions occur on
    all atoms of that type.
 3. The word 'Core' in the left margin signals that it is a Core Function (CF) : not a
    degree of freedom in the valence set, but only used to ensure orthogonalization of
    the other valence basis functions on the frozen Core Orbitals.


 (power of) X  Y  Z  R     Alpha  on Atom
            ==========     =====     ==========

 Au                                   1
                                  ---------------------------------------------------------------------------
    Core    0  0  0  0    57.000      1
    Core    0  0  0  1    36.650      2
    Core    0  0  0  2    21.050      3
    Core    0  0  0  3    12.400      4
    Core    1  0  0  0    39.650      5
    Core    0  1  0  0    39.650      6
    Core    0  0  1  0    39.650      7
    Core    1  0  0  1    17.950      8
    Core    0  1  0  1    17.950      9
    Core    0  0  1  1    17.950     10
    Core    1  0  0  2    12.550     11
    Core    0  1  0  2    12.550     12
    Core    0  0  1  2    12.550     13
    Core    2  0  0  0    22.100     14
    Core    1  1  0  0    22.100     15
    Core    1  0  1  0    22.100     16
    Core    0  2  0  0    22.100     17
    Core    0  1  1  0    22.100     18
    Core    0  0  2  0    22.100     19
    Core    2  0  0  1    11.200     20
    Core    1  1  0  1    11.200     21
    Core    1  0  1  1    11.200     22
    Core    0  2  0  1    11.200     23
    Core    0  1  1  1    11.200     24
    Core    0  0  2  1    11.200     25
            0  0  0  4     7.000     26
            0  0  0  4     4.600     27
            0  0  0  5     2.850     28
            0  0  0  5     1.510     29
            1  0  0  3     6.000     30
            0  1  0  3     6.000     31
            0  0  1  3     6.000     32
            1  0  0  3     3.700     33
            0  1  0  3     3.700     34
            0  0  1  3     3.700     35
            2  0  0  2     4.350     36
            1  1  0  2     4.350     37
            1  0  1  2     4.350     38
            0  2  0  2     4.350     39
            0  1  1  2     4.350     40
            0  0  2  2     4.350     41
            2  0  0  2     2.000     42
            1  1  0  2     2.000     43
            1  0  1  2     2.000     44
            0  2  0  2     2.000     45
            0  1  1  2     2.000     46
            0  0  2  2     2.000     47
            3  0  0  0    16.150     48
            2  1  0  0    16.150     49
            2  0  1  0    16.150     50
            1  2  0  0    16.150     51
            1  1  1  0    16.150     52
            1  0  2  0    16.150     53
            0  3  0  0    16.150     54
            0  2  1  0    16.150     55
            0  1  2  0    16.150     56
            0  0  3  0    16.150     57
            3  0  0  0     8.900     58
            2  1  0  0     8.900     59
            2  0  1  0     8.900     60
            1  2  0  0     8.900     61
            1  1  1  0     8.900     62
            1  0  2  0     8.900     63
            0  3  0  0     8.900     64
            0  2  1  0     8.900     65
            0  1  2  0     8.900     66
            0  0  3  0     8.900     67
            3  0  0  0     4.900     68
            2  1  0  0     4.900     69
            2  0  1  0     4.900     70
            1  2  0  0     4.900     71
            1  1  1  0     4.900     72
            1  0  2  0     4.900     73
            0  3  0  0     4.900     74
            0  2  1  0     4.900     75
            0  1  2  0     4.900     76
            0  0  3  0     4.900     77
            1  0  0  4     1.950     78
            0  1  0  4     1.950     79
            0  0  1  4     1.950     80

 Total number of charge fitting functions (nprimf)       327
 Total number of Cartesian basis functions (naos)         80
 Total number of Cartesian core functions  (ncos)         25



 BAS: List of all Elementary Cartesian Basis Functions
 =====================================================

 The numbering in the list below (to the right of the function characteristics) is referred
 to in print-outs of MO eigenvectors and Mulliken populations in the BAS representation
 (as contrasted to the SFO representation).

 Notes:
 1. The functions are characterized by a polynomial prefactor (powers of x,y,z and r) and
    an exponential decay factor alpha.
 2. Since the basis sets are specific for an atom TYPE, the individual functions occur on
    all atoms of that type.
 3. The word 'Core' in the left margin signals that it is a Core Function (CF) : not a
    degree of freedom in the valence set, but only used to ensure orthogonalization of
    the other valence basis functions on the frozen Core Orbitals.


 (power of) X  Y  Z  R     Alpha  on Atom
            ==========     =====     ==========

 Au                                   1
                                  ---------------------------------------------------------------------------
    Core    0  0  0  0    57.000      1
    Core    0  0  0  1    36.650      2
    Core    0  0  0  2    21.050      3
    Core    0  0  0  3    12.400      4
    Core    1  0  0  0    39.650      5
    Core    0  1  0  0    39.650      6
    Core    0  0  1  0    39.650      7
    Core    1  0  0  1    17.950      8
    Core    0  1  0  1    17.950      9
    Core    0  0  1  1    17.950     10
    Core    1  0  0  2    12.550     11
    Core    0  1  0  2    12.550     12
    Core    0  0  1  2    12.550     13
    Core    2  0  0  0    22.100     14
    Core    1  1  0  0    22.100     15
    Core    1  0  1  0    22.100     16
    Core    0  2  0  0    22.100     17
    Core    0  1  1  0    22.100     18
    Core    0  0  2  0    22.100     19
    Core    2  0  0  1    11.200     20
    Core    1  1  0  1    11.200     21
    Core    1  0  1  1    11.200     22
    Core    0  2  0  1    11.200     23
    Core    0  1  1  1    11.200     24
    Core    0  0  2  1    11.200     25
            0  0  0  4     7.000     26
            0  0  0  4     4.600     27
            0  0  0  5     2.850     28
            0  0  0  5     1.510     29
            1  0  0  3     6.000     30
            0  1  0  3     6.000     31
            0  0  1  3     6.000     32
            1  0  0  3     3.700     33
            0  1  0  3     3.700     34
            0  0  1  3     3.700     35
            2  0  0  2     4.350     36
            1  1  0  2     4.350     37
            1  0  1  2     4.350     38
            0  2  0  2     4.350     39
            0  1  1  2     4.350     40
            0  0  2  2     4.350     41
            2  0  0  2     2.000     42
            1  1  0  2     2.000     43
            1  0  1  2     2.000     44
            0  2  0  2     2.000     45
            0  1  1  2     2.000     46
            0  0  2  2     2.000     47
            3  0  0  0    16.150     48
            2  1  0  0    16.150     49
            2  0  1  0    16.150     50
            1  2  0  0    16.150     51
            1  1  1  0    16.150     52
            1  0  2  0    16.150     53
            0  3  0  0    16.150     54
            0  2  1  0    16.150     55
            0  1  2  0    16.150     56
            0  0  3  0    16.150     57
            3  0  0  0     8.900     58
            2  1  0  0     8.900     59
            2  0  1  0     8.900     60
            1  2  0  0     8.900     61
            1  1  1  0     8.900     62
            1  0  2  0     8.900     63
            0  3  0  0     8.900     64
            0  2  1  0     8.900     65
            0  1  2  0     8.900     66
            0  0  3  0     8.900     67
            3  0  0  0     4.900     68
            2  1  0  0     4.900     69
            2  0  1  0     4.900     70
            1  2  0  0     4.900     71
            1  1  1  0     4.900     72
            1  0  2  0     4.900     73
            0  3  0  0     4.900     74
            0  2  1  0     4.900     75
            0  1  2  0     4.900     76
            0  0  3  0     4.900     77
            1  0  0  4     1.950     78
            0  1  0  4     1.950     79
            0  0  1  4     1.950     80
1
 ***************************************************************************************************



                                              ***********************
                                              *  T E C H N I C A L  *
                                              ***********************
  



 =============================================================
 P A R A L L E L I Z A T I O N  and  V E C T O R I Z A T I O N
 =============================================================
  
 Nr of parallel processes:                                1
 Maximum vector length in NumInt loops:                 128



 =====================
 S C F   U P D A T E S
 =====================
  
 Max. nr. of cycles:                               300
 Convergence criterion:                              0.0000000100
   secondary criterion:                              0.0000000100

 Mix parameter (when DIIS does not apply):           0.2000000000
 Special mix parameter for the first cycle:          1.0000000000
 Mixed ADIIS+SDIIS will be used                  
    Max number of expansion vectors:                10
    Pure ADIIS when Max([F,P]) is above              0.1000000000
    Pure SDIIS when Max([F,P]) is below              0.0010000000
 Automatic ElectronSmearing (in case of problematic SCF convergence) disabled



 =================
 P R E C I S I O N  ***  (General: NumInt, NeglectFunctionTails, ...)  ***
 =================
  

 NumInt:           Target precision:                12.0000000000
 -------           Initial precision:               10.0000000000
                   Min. precision (optimization):   10.0000000000

 Neglect Functions:          Basis functions:        0.1000000000E-13
 ------------------          Fit functions:          0.1000000000E-13



 ===========================
 L I N E A R   S C A L I N G
 ===========================
  

 Cut-off radii density fit:                        0.1000000000E-97
 Overlap cut-off criterion AO matrix elements:     0.1000000000E-97
 Cut-offs for Coulomb potential and fitted density:0.1000000000E-97
 Cut-off criterion for Coulomb multipole terms:    0.1000000000E-97
 Progressive Convergence parameter:                 0.000000000    
1
 ***************************************************************************************************



                                            ***************************
                                            *  C O M P U T A T I O N  *
                                            ***************************
  

 Number of elements of the density matrix on this node (used, total):      3240      3240



 ===========================================
 Numerical Integration : Fuzzy Cells (Becke)
 ===========================================
  
 Becke grid quality: VERYGOOD       
  
 Lebedev angular grid order:             min:  13 max:  41
 Nr. of radial points:                   min: 123 max: 123

 Total nr. of points:        123
 Nr. of blocks:                1
 Block length:               123
 Nr. of dummy points:          0


 Test of Precision of the Numerical Integration Grid
 ===================================================

 Integral of the Total Core Density:                  45.99999991226612
 Relative Error:                                      -1.907E-09



 ========================
 Density Fitting (zlmFit)
 ========================
  
 ZlmFit Fit Quality: VERYGOOD       
  
 Max L-expansion:                        min:   0 max:   0
 Nr. of radial interpolation points:     min: 270 max: 270



 =====
 S C F  ***  ScaSCF  ***
 =====
  

 CYCLE    1
 SCF Error: norm([F,P])=      0.000000000000, max([F,P])=      0.000000000000
 orbitals (Q,E):
 ---------------
 S :1...4            ( 2.00   -36.7762)  ( 1.00   -21.6820)  ( 0.00   -12.9085)  ( 0.00    -7.1191)
 P :1...3            ( 6.00   -33.0866)  ( 0.00   -18.4007)  ( 0.00    -9.4584)
 D :1...2            (10.00   -25.1484)  ( 0.00   -11.3803)
[...]
 <Feb04-2021> <20:26:58>      1      0.00000000      0.00000000
 <Feb04-2021> <20:26:58>      2      2.51022395      1.83694100
 <Feb04-2021> <20:26:58>      3      2.38195714      1.61935802    100.0
 <Feb04-2021> <20:26:58>      4      0.46758430      0.27634710    100.0
 <Feb04-2021> <20:26:58>      5      0.50410652      0.30498859    100.0
 <Feb04-2021> <20:26:58>      6      0.01247625      0.00764533      6.7
 <Feb04-2021> <20:26:58>      7      0.00085022      0.00051605      0.0
 <Feb04-2021> <20:26:58>      8      0.00000244      0.00000146      0.0
 <Feb04-2021> <20:26:58>      9      0.00000001      0.00000000      0.0
 <Feb04-2021> <20:26:58>  SCF converged
 <Feb04-2021> <20:26:58>     10      0.00000000      0.00000000      0.0
 <Feb04-2021> <20:26:58>  >>>> POPAN
 <Feb04-2021> <20:26:58>  >>>> DEBYE
 <Feb04-2021> <20:26:58>  NORMAL TERMINATION
 <Feb04-2021> <20:26:58>  END
 <Feb04-2021> <20:26:58>  DIRAC 2019  RunTime: Feb04-2021 20:26:58  Nodes: 1  Procs: 1
 <Feb04-2021> <20:26:58>  NORMAL TERMINATION
 <Feb04-2021> <20:26:58>  END
 <Feb04-2021> <20:26:59>  ADF 2019  RunTime: Feb04-2021 20:26:59  Nodes: 1  Procs: 1
 <Feb04-2021> <20:26:59>  Carbon (DZ, 1s frozen)
 <Feb04-2021> <20:26:59>  RunType   : CREATE
 <Feb04-2021> <20:26:59>  Net Charge: 0 (Nuclei minus Electrons)
 <Feb04-2021> <20:26:59>  Symmetry  : ATOM
  Coordinates
    Atom         X           Y           Z   (Angstrom)
    1.C         0.000000    0.000000    0.000000
 <Feb04-2021> <20:26:59>  >>>> CORORT
 <Feb04-2021> <20:26:59>  >>>> CLSMAT
 <Feb04-2021> <20:26:59>  >>>> ORTHON
 <Feb04-2021> <20:26:59>  >>>> GENPT
 <Feb04-2021> <20:26:59>  Block Length=  68
 <Feb04-2021> <20:26:59>  >>>> PTBAS
 <Feb04-2021> <20:26:59>  >>>> CYCLE
 <Feb04-2021> <20:26:59>              |Error|         MaxErr       Wt(A-DIIS)
 <Feb04-2021> <20:26:59>      1      0.00000000      0.00000000
 <Feb04-2021> <20:26:59>      2      0.96385221      0.85255436
 <Feb04-2021> <20:26:59>      3      0.69816270      0.60759186    100.0
 <Feb04-2021> <20:26:59>      4      0.25244702      0.20719292    100.0
 <Feb04-2021> <20:26:59>      5      0.19639955      0.16352478    100.0
 <Feb04-2021> <20:26:59>      6      0.03180040      0.02617408     25.4
 <Feb04-2021> <20:26:59>      7      0.00638036      0.00527666      4.3
 <Feb04-2021> <20:26:59>      8      0.00018258      0.00015050      0.0
 <Feb04-2021> <20:26:59>      9      0.00000052      0.00000043      0.0
 <Feb04-2021> <20:26:59>     10      0.00000000      0.00000000      0.0
 <Feb04-2021> <20:26:59>  SCF converged
 <Feb04-2021> <20:26:59>     11      0.00000000      0.00000000      0.0
 <Feb04-2021> <20:26:59>  >>>> POPAN
 <Feb04-2021> <20:26:59>  >>>> DEBYE
 <Feb04-2021> <20:27:00>  NORMAL TERMINATION
 <Feb04-2021> <20:27:00>  END
 <Feb04-2021> <20:27:00>  DIRAC 2019  RunTime: Feb04-2021 20:27:00  Nodes: 1  Procs: 1
 <Feb04-2021> <20:27:00>  NORMAL TERMINATION
 <Feb04-2021> <20:27:00>  END
 <Feb04-2021> <20:27:00>  ADF 2019  RunTime: Feb04-2021 20:27:00  Nodes: 1  Procs: 1
 <Feb04-2021> <20:27:00>  Sulphur (DZ, 1s frozen)
 <Feb04-2021> <20:27:00>  RunType   : CREATE
 <Feb04-2021> <20:27:00>  Net Charge: 0 (Nuclei minus Electrons)
 <Feb04-2021> <20:27:00>  Symmetry  : ATOM
  Coordinates
    Atom         X           Y           Z   (Angstrom)
    1.S         0.000000    0.000000    0.000000
 <Feb04-2021> <20:27:00>  >>>> CORORT
 <Feb04-2021> <20:27:00>  >>>> CLSMAT
 <Feb04-2021> <20:27:00>  >>>> ORTHON
 <Feb04-2021> <20:27:00>  >>>> GENPT
 <Feb04-2021> <20:27:00>  Block Length=  81
 <Feb04-2021> <20:27:00>  >>>> PTBAS
 <Feb04-2021> <20:27:00>  >>>> CYCLE
 <Feb04-2021> <20:27:01>              |Error|         MaxErr       Wt(A-DIIS)
 <Feb04-2021> <20:27:01>      1      0.00000000      0.00000000
 <Feb04-2021> <20:27:01>      2     21.51261243      7.94990220    100.0
 <Feb04-2021> <20:27:01>      3      8.52424195      2.62505450    100.0
 <Feb04-2021> <20:27:01>      4      4.38544525      1.60446246    100.0
 <Feb04-2021> <20:27:01>      5      1.43256362      0.55140611    100.0
 <Feb04-2021> <20:27:01>      6      0.89172576      0.34614537    100.0
 <Feb04-2021> <20:27:01>      7      0.16625992      0.07286926     72.6
 <Feb04-2021> <20:27:01>      8      0.10006764      0.04307754     42.5
 <Feb04-2021> <20:27:01>      9      0.01425650      0.00614423      5.2
 <Feb04-2021> <20:27:01>     10      0.00065307      0.00028041      0.0
 <Feb04-2021> <20:27:01>     11      0.00000094      0.00000039      0.0
 <Feb04-2021> <20:27:01>     12      0.00000001      0.00000000      0.0
 <Feb04-2021> <20:27:01>  SCF converged
 <Feb04-2021> <20:27:01>     13      0.00000000      0.00000000      0.0
 <Feb04-2021> <20:27:01>  >>>> POPAN
 <Feb04-2021> <20:27:01>  >>>> DEBYE
 <Feb04-2021> <20:27:01>  NORMAL TERMINATION
 <Feb04-2021> <20:27:01>  END
 <Feb04-2021> <20:27:02>  ADF 2019  RunTime: Feb04-2021 20:27:02  Nodes: 1  Procs: 1
 <Feb04-2021> <20:27:02>  Au25 + Thiol + CYST compounds.
 <Feb04-2021> <20:27:02>  RunType   : SINGLE POINT
 <Feb04-2021> <20:27:02>  WARNING: Restricted Open-Shell calculation, Unrestricted setup may be needed
 <Feb04-2021> <20:27:02>  Net Charge: 0 (Nuclei minus Electrons)
 <Feb04-2021> <20:27:02>  Symmetry  : NOSYM
 <Feb04-2021> <20:27:02>  >>>> FRAGM
  Coordinates
    Atom         X           Y           Z   (Angstrom)
    1.Au        9.780441   10.720799   10.258942
    2.Au        9.380427   10.619897   13.094923
    3.Au       12.130868   10.794629   11.888371
    4.Au       10.397403   13.031609   11.760902
    5.Au       10.572772    8.318965   11.586503
    6.Au        7.500065   12.069269   11.203631
    7.Au        7.681926    9.131277   11.344785
    8.Au       11.873448   12.274015    9.078967
    9.Au       12.100832    9.355246    9.349518
   10.Au        8.957889   13.088481    8.911201
   11.Au        7.427019   10.544934    8.645353
   12.Au        9.254669    8.346260    8.805481
   13.Au       10.151059   10.783741    7.419219
   14.Au        6.394781   10.586683   13.660971
   15.Au        8.500751    7.866932   14.013068
   16.Au       10.750178   13.444564    6.242320
   17.Au       13.053939   10.922299    6.641880
   18.Au       13.469169    7.706819   11.542571
   19.Au       11.444253    6.448757    9.474552
   20.Au        8.192439   14.988102   11.033860
   21.Au        5.923346   13.300001    8.961447
   22.Au       13.363643   13.496429   11.656671
   23.Au       11.763324   12.216109   14.470806
   24.Au        6.311634    7.790167    8.981083
   25.Au        7.796620    8.812427    6.213070
   26.S        10.049004    6.278259   12.998021
   27.S         6.938293    9.046581   15.484335
   28.S         5.303246   12.446010   12.488349
   29.S        14.338132    9.409003    8.079310
   30.S         9.210639   15.031094    7.279101
   31.S        12.196036   12.191524    4.719804
   32.S         9.887578    6.221825    7.537522
   33.S        14.257866    9.692881   12.759501
   34.S        13.172708    5.344247   10.877148
   35.S         5.460312   11.533064    7.348330
   36.S        10.334901   15.548427   12.177703
   37.S         5.863446   15.334958   10.311537
   38.S         9.910493   11.047856   15.555138
   39.S        13.466190   14.225138    9.328153
   40.S        13.939163   13.247077   14.016079
   41.S         9.675890    9.874035    5.067012
   42.S         6.323323    6.976573   11.308658
   43.S         5.529352    7.951293    6.652045
   44.C         8.670263    4.812902    8.065019
   45.C         8.607871    3.742371    6.945410
   46.H         7.688319    5.281511    8.224924
   47.H         9.025318    4.381477    9.012668
   48.N         7.543801    2.769054    7.163447
   49.H         9.584805    3.230850    6.877297
   50.H         8.431519    4.235607    5.973430
   51.C        14.569887    5.018051    9.569049
   52.C        14.010346    4.447223    8.243870
   53.H        15.255799    4.306718   10.058268
   54.H        15.098468    5.960823    9.387571
   55.N        15.024344    4.432960    7.199645
   56.H        13.170053    5.089318    7.922140
   57.H        13.582360    3.443516    8.437341
   58.C        15.575963   10.316548   11.502490
   59.C        16.562414    9.200172   11.121636
   60.H        16.097980   11.157978   11.981073
   61.H        15.042252   10.663880   10.610772
   62.N        17.455570    9.689295   10.063875
   63.H        15.974820    8.302589   10.826294
   64.H        17.167030    8.923643   12.001284
   65.C         6.364323   12.255876    5.777949
   66.C         6.012738   11.435354    4.521083
   67.H         7.444100   12.223990    5.973765
   68.H         6.037281   13.302252    5.679497
   69.N         6.822741   11.813009    3.358500
   70.H         4.943250   11.554331    4.276805
   71.H         6.189000   10.365404    4.721004
   72.C         6.023478   16.702194    8.953881
   73.C         4.710241   16.842493    8.158261
   74.H         6.850903   16.419765    8.288593
   75.H         6.268411   17.633791    9.488275
   76.N         4.777200   17.893986    7.137680
   77.H         3.875014   17.068134    8.842214
   78.H         4.480180   15.882336    7.665452
   79.C         9.625138   15.760029   13.959366
   80.C         8.436529   16.738043   13.990587
   81.H        10.452572   16.131833   14.583204
   82.H         9.321796   14.768790   14.311849
   83.N         7.826711   16.740496   15.339852
   84.H         7.709101   16.430915   13.212752
   85.H         8.789723   17.748375   13.721701
   86.C         5.763252   13.864132   13.717942
   87.C         5.204447   13.613218   15.126359
   88.H         5.340067   14.782361   13.284791
   89.H         6.856435   13.946210   13.743426
   90.N         5.681597   14.680455   16.043147
   91.H         5.519522   12.606069   15.463063
   92.H         4.101906   13.615315   15.083324
   93.C         5.385300    7.889779   15.604630
   94.C         5.234432    7.366495   17.047177
   95.N         4.180036    6.358363   17.175929
   96.H         5.016214    8.204395   17.730778
   97.H         6.185037    6.919148   17.380938
   98.H         5.538683    7.056667   14.908330
   99.H         4.511045    8.484771   15.302841
  100.C        11.502160    6.238485   14.279336
  101.C        11.705372    7.552173   15.061525
  102.H        12.399523    5.989173   13.693950
  103.H        11.255325    5.413731   14.966284
  104.N        12.849465    7.495479   15.961135
  105.H        10.790975    7.781084   15.637618
  106.H        11.855387    8.380506   14.350086
  107.C        11.007093    8.494995    4.983340
  108.C        10.596880    7.345284    4.056768
  109.H        11.156290    8.127800    6.004295
  110.H        11.923409    8.985275    4.626226
  111.N        11.580333    6.235464    4.235975
  112.H        10.633617    7.678548    3.006774
  113.H         9.557159    7.043278    4.290633
  114.C         5.583568    6.104531    6.110657
  115.C         4.624086    5.277290    6.970796
  116.H         6.609486    5.731389    6.197304
  117.H         5.282091    6.105267    5.050017
  118.N         4.736345    3.839584    6.594180
  119.H         3.598935    5.688944    6.875321
  120.H         4.926994    5.366639    8.027278
  121.C         4.539830    7.504232   11.849403
  122.C         3.467970    7.000878   10.863603
  123.H         4.513648    8.598887   11.940708
  124.H         4.402138    7.050121   12.842580
  125.N         2.100811    7.326041   11.275758
  126.H         3.555282    5.906753   10.748964
  127.H         3.654568    7.448360    9.871639
  128.C        14.275059    7.778124    7.066047
  129.C        14.823313    7.911674    5.642672
  130.H        13.230831    7.444407    7.046244
  131.H        14.879714    7.056897    7.627579
  132.N        14.597159    6.605206    4.968267
  133.H        15.906446    8.117564    5.678708
  134.H        14.333285    8.768533    5.134904
  135.C        13.712357   13.324942    4.298227
  136.C        14.957626   12.465592    3.957567
  137.H        13.909862   13.970170    5.161843
  138.H        13.391574   13.941849    3.442490
  139.N        16.203398   13.215653    3.974331
  140.H        14.807538   11.981836    2.975299
  141.H        15.037090   11.655457    4.705731
  142.C        10.451246   16.246587    8.152149
  143.C         9.693895   17.406470    8.823846
  144.H        11.019511   15.671676    8.892272
  145.H        11.132869   16.610925    7.367390
  146.N        10.570826   18.276551    9.618380
  147.H         8.933770   16.990935    9.508206
  148.H         9.170226   18.013909    8.065806
  149.C         8.715623   12.467542   16.053726
  150.C         9.380662   13.441979   17.036817
  151.H         7.853987   11.972954   16.525136
  152.H         8.388216   12.981381   15.142996
  153.N         8.424970   14.524925   17.379649
  154.H        10.317452   13.823789   16.585814
  155.H         9.660097   12.893429   17.951708
  156.C        13.700485   15.072768   14.598535
  157.C        13.418383   15.139382   16.110687
  158.H        14.647943   15.576306   14.345711
  159.H        12.880299   15.511027   14.010363
  160.N        14.443356   14.587846   16.993805
  161.H        12.472905   14.611059   16.319352
  162.H        13.264050   16.204716   16.372237
  163.C        15.264745   13.636101    8.917358
  164.C        15.481902   13.634261    7.400565
  165.H        15.423108   12.637090    9.343678
  166.H        15.926022   14.360000    9.419740
  167.N        16.863480   13.292028    6.986053
  168.H        15.233448   14.623677    6.983123
  169.H        14.802413   12.890126    6.952434
  170.H         4.367986    5.447997   16.751140
  171.H         3.212298    6.679280   17.117519
  172.H         6.510445   14.415057   16.617294
  173.H         4.936300   15.101633   16.608747
  174.H        13.779901    7.626304   15.566424
  175.H        12.779886    6.928763   16.805185
  176.H         8.470035   15.349360   16.744455
  177.H         8.453749   14.797095   18.369167
  178.H        14.509482   13.568347   17.028306
  179.H        15.344117   15.071256   17.008462
  180.H        17.569655   13.959904    7.323732
  181.H        17.127275   12.327461    7.226306
  182.H        17.052054    9.692107    9.124716
  183.H        18.436430    9.411112   10.114643
  184.H        14.936943    5.085360    6.401687
  185.H        15.611675    3.608183    7.094767
  186.H         7.673220    2.114649    7.938085
  187.H         6.574244    3.091819    6.978541
  188.H        11.594554    5.585027    3.438218
  189.H        11.400634    5.727082    5.114619
  190.H         4.503648    3.668733    5.605663
  191.H         4.171568    3.230442    7.202743
  192.H         1.815850    8.304826   11.209447
  193.H         1.712835    6.812922   12.068970
  194.H         6.684596   12.758156    2.991847
  195.H         7.798849   11.504725    3.378366
  196.H         4.767524   18.861791    7.465437
  197.H         5.385563   17.719243    6.335133
  198.H         6.960941   16.164615   15.418962
  199.H         7.722108   17.673898   15.751149
  200.H        11.271889   18.808425    9.094045
  201.H        10.924819   17.850576   10.481044
  202.H        16.386142   13.878241    3.221646
  203.H        16.627873   13.384264    4.900815
  204.H        15.265793    6.427701    4.207289
  205.H        13.610568    6.504618    4.644406
  206.O         6.982381    4.996729   15.616833
  207.C         8.110420    5.157743   15.985666
  208.O         9.222500    5.269916   16.411003
 <Feb04-2021> <20:27:05>  >>>> CORORT
 <Feb04-2021> <20:27:17>  >>>> CLSMAT
 <Feb04-2021> <20:27:25>  >>>> ORTHON
 <Feb04-2021> <20:27:42>  >>>> GENPT
 <Feb04-2021> <20:28:02>  Block Length= 128
 <Feb04-2021> <20:29:05>  >>>> PTBAS
 <Feb04-2021> <20:37:30>  >>>> CYCLE
 <Feb04-2021> <20:44:50>              |Error|         MaxErr       Wt(A-DIIS)
 <Feb04-2021> <20:44:50>      1      8.13665028      0.40690565
 <Feb04-2021> <20:53:32>      2      4.77007355      0.35285707    100.0
 <Feb04-2021> <21:02:23>      3     14.00423121      0.71172969    100.0
 <Feb04-2021> <21:11:21>      4      4.33327844      0.35876091    100.0
 <Feb04-2021> <21:20:10>      5      7.31532858      0.37994923    100.0
 <Feb04-2021> <21:28:54>      6      2.11473181      0.24752002    100.0
 <Feb04-2021> <21:37:58>      7     13.57520192      0.69208200    100.0
 <Feb04-2021> <21:46:55>      8      5.60395388      0.43645277    100.0
 <Feb04-2021> <21:55:43>      9      4.23388283      0.37460070    100.0
 <Feb04-2021> <22:04:30>     10      1.38287381      0.21289956    100.0
 <Feb04-2021> <22:13:26>     11      5.24278104      0.58112591    100.0
 <Feb04-2021> <22:22:15>     12      1.48979147      0.27081237    100.0
 <Feb04-2021> <22:31:04>     13      1.16516158      0.23273056    100.0
 <Feb04-2021> <22:39:53>     14      0.72692869      0.15857960    100.0
 <Feb04-2021> <22:48:40>     15      1.59269607      0.31741148    100.0
 <Feb04-2021> <22:57:28>     16      0.87926187      0.21224766    100.0
 <Feb04-2021> <23:06:17>     17      0.49845686      0.05455460     54.1
 <Feb04-2021> <23:15:05>     18      0.75159990      0.19311633    100.0
 <Feb04-2021> <23:23:53>     19      0.74424350      0.19560853    100.0
 <Feb04-2021> <23:32:42>     20      0.24458300      0.02215465     21.4
 <Feb04-2021> <23:41:31>     21      0.16319797      0.01571130     14.9
 <Feb04-2021> <23:50:18>     22      0.08704902      0.00620750      5.3
 <Feb04-2021> <23:59:06>     23      0.04304589      0.00409443      3.1
 <Feb05-2021> <00:07:54>     24      0.02501834      0.00267543      1.7
 <Feb05-2021> <00:16:41>     25      0.01965799      0.00215124      1.2
 <Feb05-2021> <00:25:30>     26      0.01759180      0.00326132      1.2
 <Feb05-2021> <00:34:19>     27      0.00662038      0.00076582      0.0
 <Feb05-2021> <00:43:08>     28      0.00677430      0.00161545      0.0
 <Feb05-2021> <00:51:58>     29      0.00554377      0.00088201      0.0
 <Feb05-2021> <01:00:48>     30      0.00284404      0.00053454      0.0
 <Feb05-2021> <01:09:38>     31      0.00482716      0.00059657      0.0
 <Feb05-2021> <01:18:27>     32      0.00176036      0.00015144      0.0
 <Feb05-2021> <01:27:26>     33      0.00062420      0.00005383      0.0
 <Feb05-2021> <01:36:28>     34      0.00080806      0.00007757      0.0
 <Feb05-2021> <01:45:29>     35      0.00032738      0.00002993      0.0
 <Feb05-2021> <01:54:28>     36      0.00025527      0.00002076      0.0
 <Feb05-2021> <02:03:29>     37      0.00007306      0.00000948      0.0
 <Feb05-2021> <02:12:29>     38      0.00017229      0.00001902      0.0
 <Feb05-2021> <02:21:36>     39      0.00007664      0.00000776      0.0
 <Feb05-2021> <02:30:46>     40      0.00002887      0.00000228      0.0
 <Feb05-2021> <02:39:53>     41      0.00001027      0.00000141      0.0
 <Feb05-2021> <02:48:59>     42      0.00000276      0.00000029      0.0
 <Feb05-2021> <02:51:09>  SCF converged
 <Feb05-2021> <02:58:07>     43      0.00000644      0.00000075      0.0
 <Feb05-2021> <02:58:22>  WARNING: partially occupied orbitals
 <Feb05-2021> <02:58:22>   Solutions with partially occupied orbitals may not be
 <Feb05-2021> <02:58:22>   lowest in energy. You might consider lowering the
 <Feb05-2021> <02:58:22>   symmetry in the input and explicitly specifying integer
 <Feb05-2021> <02:58:22>   occupations. In that case always check that you obtain
 <Feb05-2021> <02:58:22>   an aufbau solution.
 <Feb05-2021> <03:04:49>  >>>> TOTEN
 <Feb05-2021> <04:09:54>  >>>> POPAN
 <Feb05-2021> <04:09:56>  >>>> DEBYE
 <Feb05-2021> <04:10:08>  >>>> AMETS
 <Feb05-2021> <04:10:24>   Bond Energy         -36.85438596 a.u.
 <Feb05-2021> <04:10:24>   Bond Energy       -1002.85886779 eV
 <Feb05-2021> <04:10:24>   Bond Energy      -23126.48       kcal/mol
 <Feb05-2021> <04:10:24>  >>>> POPUL
 <Feb05-2021> <04:10:43>  NORMAL TERMINATION with warnings
 <Feb05-2021> <04:10:44>  END
