
 *******************************************************************************
 *                                                                             *
 *  -------------------------------------                                      *
 *   Amsterdam Density Functional  (ADF)         2019                          *
 *  -------------------------------------                                      *
 *                                               r74351 2019-04-25             *
 *                                                                             *
 *                                                                             *
 *                            =====================                            *
 *                            |                   |                            *
 *                            |     D I R A C     |                            *
 *                            |                   |                            *
 *                            =====================                            *
 *                                                                             *
 *                                                                             *
 *   Online information and documentation:  https://www.scm.com/support/       *
 *   E-mail:  support@scm.com   info@scm.com                                   *
 *                                                                             *
 *   Scientific publications using ADF results must be properly referenced     *
 *   See the User Manuals (or the web site) for recommended citations          *
 *   The terms and conditions of the End User License Agreement apply to       *
 *   the use of ADF, https://www.scm.com/license-terms/                        *
 *                                                                             *
 **********************  x86_64_linux_intel / intelmpi  ************************
 
 Licensed to: Dr. Emilie Guidez / UC Denver / Denver / CO / USA
 SCM User ID: u20218
  
 DIRAC 2019  RunTime: Feb04-2021 20:27:07  Nodes: 1  Procs: 1

 Temporary files are created in /home/chemistry/limjae/scr/kid_0.985365392

1
 HYDROGEN ATOM RELATIVISTIC, Point Nuc, A and c from libtc   
 N J RN H ZN XION ANUC CLIGHT
 5000    1100.00000000197.36710137  1.00000000  0.00000000    1.007825  0.1370360E+03
  PH   PHI     EPS        DEL        DELRVR
  0.30  0.30     2500.00  0.00001000  0.00001000
 IDIRC  NC1  NDEBU NPRIN  IPUN IRCOR IWCOR
   1   300     0     0     0     0     0
   XALPHA      XLATTER      RNUC
  0.70000000  0.00000000  0.00000000 Point Charge
   XN   XL   XJ      XE          XZ      XDELL
  1.0  0.0  0.5      -1.000       1.000     0.00000
 ICORP=  0  NPCL=  0  DEMP=0.00  PEPS=0.000000
 R(1)=  0.1000000E-08 D=  0.1005080E+01 RNUC=  0.0000000E+00
 converged at cycle   32  DENSITY AVERAGING    0.2400
  MAXIMUM ERROR IN R.V(R) IS   0.79874357E-05
 Q,EY,EV,EZ,ESUM,ETOT,RHO  0.100000E+01 -0.266614E+00 -0.619969E+00 -0.910779E+00 -0.203940E+00 -0.415998E+00  0.337036E-17


 DIRAC CALCULATION
1                    HYDROGEN ATOM RELATIVISTIC, Point Nuc, A and c from libtc


 EXCHANGE COEFFICIENT=  0.7000000           TAIL CORRECTION=  0.           NUCLEAR RADIUS=  0.000E+00
0                       ORBITAL    N    L    J     ELECTRONS     EIGENVALUE                DELTA OF EIGENV.

                          1S1/2  1.0  0.0  0.5     1.000       -0.2039397E+00                 0.2720093E-06


                                        NUCLEAR CHARGE=    1.000000
                            INTEGRAL OF CHARGE DENSITY=    1.000000
                           SUM OF THE ORBITAL ENERGIES=     -0.2039
                                          TOTAL ENERGY=     -0.4160
                                        KINETIC ENERGY=      0.4160
                             NUCLEAR ATTRACTION ENERGY=     -0.9108
                             ELECTRON REPULSION ENERGY=      0.2787
                                       EXCHANGE ENERGY=     -0.2000

 *******************************************************************************

                             D I R A C   E X I T
 NORMAL TERMINATION



 =================
 Timing Statistics
 =================
  
 Total Used :                     CPU=        0.07      System=        0.01     Elapsed=        0.12

 Calls  Section                     ( Mean, Percentage )
 ---------------------------------------------------------------------------------------------------
     2  ><      ................      0.00    0.01             0.00    0.17             0.00    0.02
     1  EXIT PROCEDURE .........      0.07   99.99             0.01   99.83             0.12   99.98


 Currently Open Files (EXIT00)
 ====================

 Unit    Access Format  Status   Type       Ident (file)
 -------------------------------------------------------
   3      SEQ    FORM   TRANSP  NORMAL      LOGFILE
                                          ( logfile )
 
Create H   file=DZ-H
XC
 GGA PBE
End
relativistic ZORA
Corepotentials t12.rel
End

 *******************************************************************************
 *                                                                             *
 *  -------------------------------------                                      *
 *   Amsterdam Density Functional  (ADF)         2019                          *
 *  -------------------------------------                                      *
 *                                               r74351 2019-04-25             *
 *                                                                             *
 *                                                                             *
 *                              =================                              *
 *                              |               |                              *
 *                              |     A D F     |                              *
 *                              |               |                              *
 *                              =================                              *
 *                                                                             *
 *                                                                             *
 *   Online information and documentation:  https://www.scm.com/support/       *
 *   E-mail:  support@scm.com   info@scm.com                                   *
 *                                                                             *
 *   Scientific publications using ADF results must be properly referenced     *
 *   See the User Manuals (or the web site) for recommended citations          *
 *   The terms and conditions of the End User License Agreement apply to       *
 *   the use of ADF, https://www.scm.com/license-terms/                        *
 *                                                                             *
 **********************  x86_64_linux_intel / intelmpi  ************************
 
 Licensed to: Dr. Emilie Guidez / UC Denver / Denver / CO / USA
 SCM User ID: u20218
  
 ADF 2019  RunTime: Feb04-2021 20:27:07  Nodes: 1  Procs: 1

 Temporary files are created in /home/chemistry/limjae/scr/kid_0.1574088810

 Hydrogen (DZ)



 ===========================
 A T T A C H E D   F I L E S
 ===========================
  
 CREATE - Data File:    DZ-H
                        Hydrogen (DZ)
 Core Potentials:
         file : t12.rel



 ===============================
 M O D E L   P A R A M E T E R S
 ===============================
  
 DENSITY FUNCTIONAL POTENTIAL (scf)
    LDA:                               PW92                                    == Not Default ==
    Gradient Corrections:              PBEc PBEx                               == Not Default ==

 SPIN  (restricted / unrestr.)
    Molecule:                          Restricted                               

 OTHER ASPECTS
    Relativistic Corrections:          scalar (ZORA,MAPA)                      == Not Default ==

    Nuclear Charge Density Model:      Point Charge Nuclei                      
    Core Treatment:                    Frozen Orbital(s)                        

    Hyperfine or Zeeman Interaction:   ---                                      



 =====================================
 S Y M M E T R Y ,   E L E C T R O N S
 =====================================
  
 Symmetry: ATOM

 Irreducible Representations, including subspecies
 -------------------------------------------------
 S
 P:x  P:y  P:z
 D:z2  D:x2-y2  D:xy  D:xz  D:yz
 F:z3  F:z  F:xyz  F:z2x  F:z2y  F:x  F:y


 Configuration of Valence Electrons
 ==================================

          Occupation Numbers
          -------------------------------------------------
 S        1
 P        0
 D        0
 F        0
          -------------------------------------------------

 Total:   1

 Net Charge: 0 (Nuclei minus Electrons)

 Preset values for MO occupations will be applied through SCF cycle no. 1000000
 Thereafter, the program will assign electrons to MOs that are spatially
 similar to the occupied MOs in a "reference" cycle ("KeepOrbitals").
 The reference cycle is always the PREVIOUS cycle: it will evolve with
 the SCF procedure.



 ================================
 (Slater-type)  F U N C T I O N S  ***  (Basis and Fit)  ***
 ================================
  

 Atom Type    1  (H)
 ==============

 Valence Basis Sets:   2
 -----------------------
   1 S    0.760000
   1 S    1.280000


 BAS: List of all Elementary Cartesian Basis Functions
 =====================================================

 The numbering in the list below (to the right of the function characteristics) is referred
 to in print-outs of MO eigenvectors and Mulliken populations in the BAS representation
 (as contrasted to the SFO representation).

 Notes:
 1. The functions are characterized by a polynomial prefactor (powers of x,y,z and r) and
    an exponential decay factor alpha.
 2. Since the basis sets are specific for an atom TYPE, the individual functions occur on
    all atoms of that type.
 3. The word 'Core' in the left margin signals that it is a Core Function (CF) : not a
    degree of freedom in the valence set, but only used to ensure orthogonalization of
    the other valence basis functions on the frozen Core Orbitals.


 (power of) X  Y  Z  R     Alpha  on Atom
            ==========     =====     ==========

 H                                    1
                                  ---------------------------------------------------------------------------
            0  0  0  0     0.760      1
            0  0  0  0     1.280      2

 Total number of charge fitting functions (nprimf)        50
 Total number of Cartesian basis functions (naos)          2
 Total number of Cartesian core functions  (ncos)          0



 BAS: List of all Elementary Cartesian Basis Functions
 =====================================================

 The numbering in the list below (to the right of the function characteristics) is referred
 to in print-outs of MO eigenvectors and Mulliken populations in the BAS representation
 (as contrasted to the SFO representation).

 Notes:
 1. The functions are characterized by a polynomial prefactor (powers of x,y,z and r) and
    an exponential decay factor alpha.
 2. Since the basis sets are specific for an atom TYPE, the individual functions occur on
    all atoms of that type.
 3. The word 'Core' in the left margin signals that it is a Core Function (CF) : not a
    degree of freedom in the valence set, but only used to ensure orthogonalization of
    the other valence basis functions on the frozen Core Orbitals.


 (power of) X  Y  Z  R     Alpha  on Atom
            ==========     =====     ==========

 H                                    1
                                  ---------------------------------------------------------------------------
            0  0  0  0     0.760      1
            0  0  0  0     1.280      2
1
 ***************************************************************************************************



                                              ***********************
                                              *  T E C H N I C A L  *
                                              ***********************
  



 =============================================================
 P A R A L L E L I Z A T I O N  and  V E C T O R I Z A T I O N
 =============================================================
  
 Nr of parallel processes:                                1
 Maximum vector length in NumInt loops:                 128



 =====================
 S C F   U P D A T E S
 =====================
  
 Max. nr. of cycles:                               300
 Convergence criterion:                              0.0000000100
   secondary criterion:                              0.0000000100

 Mix parameter (when DIIS does not apply):           0.2000000000
 Special mix parameter for the first cycle:          1.0000000000
 Mixed ADIIS+SDIIS will be used                  
    Max number of expansion vectors:                10
    Pure ADIIS when Max([F,P]) is above              0.1000000000
    Pure SDIIS when Max([F,P]) is below              0.0010000000
 Automatic ElectronSmearing (in case of problematic SCF convergence) disabled



 =================
 P R E C I S I O N  ***  (General: NumInt, NeglectFunctionTails, ...)  ***
 =================
  

 NumInt:           Target precision:                12.0000000000
 -------           Initial precision:               10.0000000000
                   Min. precision (optimization):   10.0000000000

 Neglect Functions:          Basis functions:        0.1000000000E-13
 ------------------          Fit functions:          0.1000000000E-13



 ===========================
 L I N E A R   S C A L I N G
 ===========================
  

 Cut-off radii density fit:                        0.1000000000E-97
 Overlap cut-off criterion AO matrix elements:     0.1000000000E-97
 Cut-offs for Coulomb potential and fitted density:0.1000000000E-97
 Cut-off criterion for Coulomb multipole terms:    0.1000000000E-97
 Progressive Convergence parameter:                 0.000000000    
1
 ***************************************************************************************************



                                            ***************************
                                            *  C O M P U T A T I O N  *
                                            ***************************
  

 Number of elements of the density matrix on this node (used, total):         3         3



 ===========================================
 Numerical Integration : Fuzzy Cells (Becke)
 ===========================================
  
 Becke grid quality: VERYGOOD       
  
 Lebedev angular grid order:             min:  13 max:  41
 Nr. of radial points:                   min:  64 max:  64

 Total nr. of points:         64
 Nr. of blocks:                1
 Block length:                64
 Nr. of dummy points:          0


 Test of Precision of the Numerical Integration Grid
 ===================================================

 Integral of the Total Core Density:                   0.00000000000000



 ========================
 Density Fitting (zlmFit)
 ========================
  
 ZlmFit Fit Quality: VERYGOOD       
  
 Max L-expansion:                        min:   0 max:   0
 Nr. of radial interpolation points:     min: 120 max: 120



 =====
 S C F  ***  ScaSCF  ***
 =====
  

 CYCLE    1
 SCF Error: norm([F,P])=      0.000000000000, max([F,P])=      0.000000000000
 orbitals (Q,E):
 ---------------
 S :1...2            ( 1.00    -0.4983)  ( 0.00     0.1718)

 CYCLE    2
 SCF Error: norm([F,P])=      0.033001933656, max([F,P])=      0.033001933656
 orbitals (Q,E):
 ---------------
 S :1...2            ( 1.00    -0.2268)  ( 0.00     0.4005)

 CYCLE    3
  SDIIS (wt  0.000):  0.1528  0.8472
 A-DIIS (wt  1.000):  0.0000  1.0000
  DIIS coefficients:  0.0000  1.0000
 SCF Error: norm([F,P])=      0.005954454000, max([F,P])=      0.005954454000
 orbitals (Q,E):
 ---------------
 S :1...2            ( 1.00    -0.2417)  ( 0.00     0.3884)

 CYCLE    4
  SDIIS (wt  1.000):  0.1463  0.8537
 A-DIIS (wt  0.000):  0.0000  1.0000
  DIIS coefficients:  0.1463  0.8537
 SCF Error: norm([F,P])=      0.001020399433, max([F,P])=      0.001020399433
 orbitals (Q,E):
 ---------------
 S :1...2            ( 1.00    -0.2394)  ( 0.00     0.3902)

 CYCLE    5
  SDIIS (wt  1.000):  0.0014  0.9986
  DIIS coefficients:  0.0014  0.9986
 SCF Error: norm([F,P])=      0.000001436995, max([F,P])=      0.000001436995
 orbitals (Q,E):
 ---------------
 S :1...2            ( 1.00    -0.2394)  ( 0.00     0.3902)

 CYCLE    6
  SDIIS (wt  1.000): -0.0002  1.0002
  DIIS coefficients: -0.0002  1.0002
 SCF Error: norm([F,P])=      0.000000000334, max([F,P])=      0.000000000334
 orbitals (Q,E):
 ---------------
 S :1...2            ( 1.00    -0.2394)  ( 0.00     0.3902)

 SCF CONVERGED

 CYCLE    7
1
 ***************************************************************************************************



                                                *******************
                                                *  R E S U L T S  *
                                                *******************
  
 *** Using FIT density in Focky
  SDIIS (wt  1.000):  0.0000  1.0000
  DIIS coefficients:  0.0000  1.0000
 SCF Error: norm([F,P])=      0.000000000000, max([F,P])=      0.000000000000

 Scaled ZORA Orbital Energies, per Irrep and Spin:
 =================================================
                        Occup              E (au)              E (eV)       Diff (eV) with prev. cycle
                        -----      --------------------        ------       --------------------------
 S
               1        1.000     -0.23939248892723E+00        -6.514               9.37E-14
               2        0.000      0.39021645958604E+00        10.618


 Partially Occupied:
               1 S                -0.23939248892723E+00
  
 LUMO :        2 S                 0.39021645958604E+00
  


 All Electron Calculation, thus no Orbital Energies of the Core Orbitals are calculated



 =======================================
 M U L L I K E N   P O P U L A T I O N S
 =======================================
  
 The survey below gives for each atom:
 a) the total charge (Z minus electrons)
 b) the net spin polarization (nr of electrons spin-A minus spin-B)
 c) for each spin the atomic electron valence density (integrated) per L-value.

 Atom              Charge    Spin density          S         P         D         F
 ----              ------    ------------       ------    ------    ------    ------
 1 H              -0.0000                       1.0000    0.0000    0.0000    0.0000

 Populations of individual BAS functions
 ----------------------------------------
 1 H            0.6465  0.3535

 Gross Charges per Atom (Z minus electrons)
 ==========================================
            -0.0000
 Net Total: -0.00000000



 =======================================================================
 Electrostatic potential at the Nuclei due to electrons and other nuclei
 =======================================================================
  
         Atom                  Potential
         ----                  ---------
     1)   H                   0.94379605
 
 
 ========================
 No memory problems found
 ========================
 
 Maximum number of active allocate calls:         264
 
 *******************************************************************************

                             A D F   E X I T
 NORMAL TERMINATION



 =================
 Timing Statistics
 =================
  
 Total Used :                     CPU=        0.44      System=        0.06     Elapsed=        0.69

 Calls  Section                     ( Mean, Percentage )
 ---------------------------------------------------------------------------------------------------
     3  ><      ................      0.00    1.18             0.00    0.14             0.00    1.16
     1  INIT    ................      0.08   18.97             0.01    9.99             0.10   14.76
     1  GEOMET  ................      0.04    8.32             0.00    6.77             0.07    9.59
     1  INPUTA  ................      0.01    1.23             0.00    0.68             0.01    1.35
     1  MAINSY  ................      0.02    4.11             0.01    8.40             0.04    6.02
     1  SYMFIT  ................      0.00    0.14             0.00    2.02             0.00    0.34
     1  CORORT  ................      0.00    0.35             0.00    0.30             0.00    0.52
     1  SYMORB  ................      0.00    0.34             0.00    0.29             0.00    0.39
     1  CLSMAT  ................      0.01    1.79             0.00    3.15             0.01    2.16
     1  ORTHON  ................      0.00    1.01             0.00    0.76             0.01    1.06
     1  GENPT   ................      0.02    4.03             0.00    4.29             0.03    4.30
     1  PTBAS   ................      0.01    2.20             0.00    0.85             0.02    2.41
     7  FOCKY   ................      0.03   41.13             0.00   28.37             0.03   34.59
     7  FOCKTR  ................      0.00    1.43             0.00    0.97             0.00    2.03
     7  SDIIS   ................      0.00    4.36             0.00   16.76             0.01    8.24
     1  COREPS  ................      0.02    3.74             0.00    6.85             0.03    4.05
     1  POPAN   ................      0.01    1.55             0.00    2.67             0.01    1.94
     1  DEBYE   ................      0.00    0.59             0.00    1.04             0.01    0.85
     1  EXIT PROCEDURE .........      0.02    3.53             0.00    5.70             0.03    4.24


 Currently Open Files (EXIT00)
 ====================

 Unit    Access Format  Status   Type       Ident (file)
 -------------------------------------------------------
   3      SEQ    FORM   TRANSP  NORMAL      LOGFILE
                                          ( logfile )

 ***************************************************************************************************
 (LOGFILE)
 <Feb04-2021> <20:27:07>  DIRAC 2019  RunTime: Feb04-2021 20:27:07  Nodes: 1  Procs: 1
 <Feb04-2021> <20:27:07>  NORMAL TERMINATION
 <Feb04-2021> <20:27:07>  END
 <Feb04-2021> <20:27:07>  ADF 2019  RunTime: Feb04-2021 20:27:07  Nodes: 1  Procs: 1
 <Feb04-2021> <20:27:07>  Hydrogen (DZ)
 <Feb04-2021> <20:27:07>  RunType   : CREATE
 <Feb04-2021> <20:27:07>  Net Charge: 0 (Nuclei minus Electrons)
 <Feb04-2021> <20:27:07>  Symmetry  : ATOM
  Coordinates
    Atom         X           Y           Z   (Angstrom)
    1.H         0.000000    0.000000    0.000000
 <Feb04-2021> <20:27:07>  >>>> CORORT
 <Feb04-2021> <20:27:07>  >>>> CLSMAT
 <Feb04-2021> <20:27:07>  >>>> ORTHON
 <Feb04-2021> <20:27:07>  >>>> GENPT
 <Feb04-2021> <20:27:07>  Block Length=  64
 <Feb04-2021> <20:27:07>  >>>> PTBAS
 <Feb04-2021> <20:27:07>  >>>> CYCLE
 <Feb04-2021> <20:27:07>              |Error|         MaxErr       Wt(A-DIIS)
 <Feb04-2021> <20:27:07>      1      0.00000000      0.00000000
 <Feb04-2021> <20:27:07>      2      0.03300193      0.03300193
 <Feb04-2021> <20:27:07>      3      0.00595445      0.00595445    100.0
 <Feb04-2021> <20:27:07>      4      0.00102040      0.00102040      0.0
 <Feb04-2021> <20:27:07>      5      0.00000144      0.00000144      0.0
 <Feb04-2021> <20:27:07>      6      0.00000000      0.00000000      0.0
 <Feb04-2021> <20:27:07>  SCF converged
 <Feb04-2021> <20:27:07>      7      0.00000000      0.00000000      0.0
 <Feb04-2021> <20:27:07>  >>>> POPAN
 <Feb04-2021> <20:27:07>  >>>> DEBYE
 <Feb04-2021> <20:27:08>  NORMAL TERMINATION
 <Feb04-2021> <20:27:08>  END

 *******************************************************************************
 *                                                                             *
 *  -------------------------------------                                      *
 *   Amsterdam Density Functional  (ADF)         2019                          *
 *  -------------------------------------                                      *
 *                                               r74351 2019-04-25             *
 *                                                                             *
 *                                                                             *
 *                            =====================                            *
 *                            |                   |                            *
 *                            |     D I R A C     |                            *
 *                            |                   |                            *
 *                            =====================                            *
 *                                                                             *
 *                                                                             *
 *   Online information and documentation:  https://www.scm.com/support/       *
 *   E-mail:  support@scm.com   info@scm.com                                   *
 *                                                                             *
 *   Scientific publications using ADF results must be properly referenced     *
 *   See the User Manuals (or the web site) for recommended citations          *
 *   The terms and conditions of the End User License Agreement apply to       *
 *   the use of ADF, https://www.scm.com/license-terms/                        *
 *                                                                             *
 **********************  x86_64_linux_intel / intelmpi  ************************
 
 Licensed to: Dr. Emilie Guidez / UC Denver / Denver / CO / USA
 SCM User ID: u20218
  
 DIRAC 2019  RunTime: Feb04-2021 20:27:08  Nodes: 1  Procs: 1

 Temporary files are created in /home/chemistry/limjae/scr/kid_0.1286080049

1
 NITROGEN ATOM 1s CORE RELATIVISTIC, Point Nuc, A and c from 
 N J RN H ZN XION ANUC CLIGHT
 5000    4100.00000000197.36710137  7.00000000  0.00000000   14.003074  0.1370360E+03
  PH   PHI     EPS        DEL        DELRVR
  0.30  0.30     2500.00  0.00001000  0.00001000
 IDIRC  NC1  NDEBU NPRIN  IPUN IRCOR IWCOR
   1   300     0     0     0     0     1
   XALPHA      XLATTER      RNUC
  0.70000000  0.00000000  0.00000000 Point Charge
   XN   XL   XJ      XE          XZ      XDELL
  1.0  0.0  0.5      -5.000       2.000     0.00000
  2.0  0.0  0.5      -1.000       2.000     0.00000
  2.0  1.0  0.5      -1.000       2.000     0.00000
  2.0  1.0  1.5      -1.000       1.000     0.00000
 ICORP=  0  NPCL=  0  DEMP=0.00  PEPS=0.000000
 R(1)=  0.1000000E-08 D=  0.1005080E+01 RNUC=  0.0000000E+00
 converged at cycle   25  DENSITY AVERAGING    0.3000
  MAXIMUM ERROR IN R.V(R) IS   0.97905511E-05
 Q,EY,EV,EZ,ESUM,ETOT,RHO  0.700000E+01 -0.796419E+01 -0.840156E+02 -0.127663E+03 -0.300692E+02 -0.538837E+02  0.270066E-14


 DIRAC CALCULATION
1                    NITROGEN ATOM 1s CORE RELATIVISTIC, Point Nuc, A and c from libtc


 EXCHANGE COEFFICIENT=  0.7000000           TAIL CORRECTION=  0.           NUCLEAR RADIUS=  0.000E+00
0                       ORBITAL    N    L    J     ELECTRONS     EIGENVALUE                DELTA OF EIGENV.

                          1S1/2  1.0  0.0  0.5     2.000       -0.1403720E+02                 0.4993583E-04
                          2S1/2  2.0  0.0  0.5     2.000       -0.6456810E+00                 0.6544571E-05
                          2P1/2  2.0  1.0  0.5     2.000       -0.2347008E+00                 0.5687228E-05
                          2P3/2  2.0  1.0  1.5     1.000       -0.2339893E+00                 0.5679256E-05


                                        NUCLEAR CHARGE=    7.000000
                            INTEGRAL OF CHARGE DENSITY=    7.000000
                           SUM OF THE ORBITAL ENERGIES=    -30.0692
                                          TOTAL ENERGY=    -53.8837
                                        KINETIC ENERGY=     53.9465
                             NUCLEAR ATTRACTION ENERGY=   -127.6627
                             ELECTRON REPULSION ENERGY=     25.8056
                                       EXCHANGE ENERGY=     -5.9731

 *******************************************************************************

                             D I R A C   E X I T
 NORMAL TERMINATION



 =================
 Timing Statistics
 =================
  
 Total Used :                     CPU=        0.10      System=        0.01     Elapsed=        0.17

 Calls  Section                     ( Mean, Percentage )
 ---------------------------------------------------------------------------------------------------
     2  ><      ................      0.00    0.00             0.00    0.05             0.00    0.00
     1  EXIT PROCEDURE .........      0.10  100.00             0.01   99.95             0.17  100.00


 Currently Open Files (EXIT00)
 ====================

 Unit    Access Format  Status   Type       Ident (file)
 -------------------------------------------------------
   3      SEQ    FORM   TRANSP  NORMAL      LOGFILE
                                          ( logfile )
 
Create N   file=DZ-N.1s
XC
 GGA PBE
End
relativistic ZORA
Corepotentials t12.rel
End

 *******************************************************************************
 *                                                                             *
 *  -------------------------------------                                      *
 *   Amsterdam Density Functional  (ADF)         2019                          *
 *  -------------------------------------                                      *
 *                                               r74351 2019-04-25             *
 *                                                                             *
 *                                                                             *
 *                              =================                              *
 *                              |               |                              *
 *                              |     A D F     |                              *
 *                              |               |                              *
 *                              =================                              *
 *                                                                             *
 *                                                                             *
 *   Online information and documentation:  https://www.scm.com/support/       *
 *   E-mail:  support@scm.com   info@scm.com                                   *
 *                                                                             *
 *   Scientific publications using ADF results must be properly referenced     *
 *   See the User Manuals (or the web site) for recommended citations          *
 *   The terms and conditions of the End User License Agreement apply to       *
 *   the use of ADF, https://www.scm.com/license-terms/                        *
 *                                                                             *
 **********************  x86_64_linux_intel / intelmpi  ************************
 
 Licensed to: Dr. Emilie Guidez / UC Denver / Denver / CO / USA
 SCM User ID: u20218
  
 ADF 2019  RunTime: Feb04-2021 20:27:08  Nodes: 1  Procs: 1

 Temporary files are created in /home/chemistry/limjae/scr/kid_0.1385725714

 Nitrogen (DZ, 1s frozen)



 ===========================
 A T T A C H E D   F I L E S
 ===========================
  
 CREATE - Data File:    DZ-N.1s
                        Nitrogen (DZ, 1s frozen)
 Core Potentials:
         file : t12.rel



 ===============================
 M O D E L   P A R A M E T E R S
 ===============================
  
 DENSITY FUNCTIONAL POTENTIAL (scf)
    LDA:                               PW92                                    == Not Default ==
    Gradient Corrections:              PBEc PBEx                               == Not Default ==

 SPIN  (restricted / unrestr.)
    Molecule:                          Restricted                               

 OTHER ASPECTS
    Relativistic Corrections:          scalar (ZORA,MAPA)                      == Not Default ==

    Nuclear Charge Density Model:      Point Charge Nuclei                      
    Core Treatment:                    Frozen Orbital(s)                        

    Hyperfine or Zeeman Interaction:   ---                                      



 =====================================
 S Y M M E T R Y ,   E L E C T R O N S
 =====================================
  
 Symmetry: ATOM

 Irreducible Representations, including subspecies
 -------------------------------------------------
 S
 P:x  P:y  P:z
 D:z2  D:x2-y2  D:xy  D:xz  D:yz
 F:z3  F:z  F:xyz  F:z2x  F:z2y  F:x  F:y


 Configuration of Valence Electrons
 ==================================

          Occupation Numbers
          -------------------------------------------------
 S        2
 P        3
 D        0
 F        0
          -------------------------------------------------

 Total:   5

 Net Charge: 0 (Nuclei minus Electrons)

 Preset values for MO occupations will be applied through SCF cycle no. 1000000
 Thereafter, the program will assign electrons to MOs that are spatially
 similar to the occupied MOs in a "reference" cycle ("KeepOrbitals").
 The reference cycle is always the PREVIOUS cycle: it will evolve with
 the SCF procedure.



 ================================
 (Slater-type)  F U N C T I O N S  ***  (Basis and Fit)  ***
 ================================
  

 Atom Type    1  (N)
 ==============

 Valence Basis Sets:   5
 -----------------------
   1 S    6.380000
   2 S    1.460000
   2 S    2.380000
   2 P    1.120000
   2 P    2.580000

 Frozen Core Shells
 ------------------
    S:  1


 BAS: List of all Elementary Cartesian Basis Functions
 =====================================================

 The numbering in the list below (to the right of the function characteristics) is referred
 to in print-outs of MO eigenvectors and Mulliken populations in the BAS representation
 (as contrasted to the SFO representation).

 Notes:
 1. The functions are characterized by a polynomial prefactor (powers of x,y,z and r) and
    an exponential decay factor alpha.
 2. Since the basis sets are specific for an atom TYPE, the individual functions occur on
    all atoms of that type.
 3. The word 'Core' in the left margin signals that it is a Core Function (CF) : not a
    degree of freedom in the valence set, but only used to ensure orthogonalization of
    the other valence basis functions on the frozen Core Orbitals.


 (power of) X  Y  Z  R     Alpha  on Atom
            ==========     =====     ==========

 N                                    1
                                  ---------------------------------------------------------------------------
    Core    0  0  0  0     6.380      1
            0  0  0  1     1.460      2
            0  0  0  1     2.380      3
            1  0  0  0     1.120      4
            0  1  0  0     1.120      5
            0  0  1  0     1.120      6
            1  0  0  0     2.580      7
            0  1  0  0     2.580      8
            0  0  1  0     2.580      9

 Total number of charge fitting functions (nprimf)        82
 Total number of Cartesian basis functions (naos)          9
 Total number of Cartesian core functions  (ncos)          1



 BAS: List of all Elementary Cartesian Basis Functions
 =====================================================

 The numbering in the list below (to the right of the function characteristics) is referred
 to in print-outs of MO eigenvectors and Mulliken populations in the BAS representation
 (as contrasted to the SFO representation).

 Notes:
 1. The functions are characterized by a polynomial prefactor (powers of x,y,z and r) and
    an exponential decay factor alpha.
 2. Since the basis sets are specific for an atom TYPE, the individual functions occur on
    all atoms of that type.
 3. The word 'Core' in the left margin signals that it is a Core Function (CF) : not a
    degree of freedom in the valence set, but only used to ensure orthogonalization of
    the other valence basis functions on the frozen Core Orbitals.


 (power of) X  Y  Z  R     Alpha  on Atom
            ==========     =====     ==========

 N                                    1
                                  ---------------------------------------------------------------------------
    Core    0  0  0  0     6.380      1
            0  0  0  1     1.460      2
            0  0  0  1     2.380      3
            1  0  0  0     1.120      4
            0  1  0  0     1.120      5
            0  0  1  0     1.120      6
            1  0  0  0     2.580      7
            0  1  0  0     2.580      8
            0  0  1  0     2.580      9
1
 ***************************************************************************************************



                                              ***********************
                                              *  T E C H N I C A L  *
                                              ***********************
  



 =============================================================
 P A R A L L E L I Z A T I O N  and  V E C T O R I Z A T I O N
 =============================================================
  
 Nr of parallel processes:                                1
 Maximum vector length in NumInt loops:                 128



 =====================
 S C F   U P D A T E S
 =====================
  
 Max. nr. of cycles:                               300
 Convergence criterion:                              0.0000000100
   secondary criterion:                              0.0000000100

 Mix parameter (when DIIS does not apply):           0.2000000000
 Special mix parameter for the first cycle:          1.0000000000
 Mixed ADIIS+SDIIS will be used                  
    Max number of expansion vectors:                10
    Pure ADIIS when Max([F,P]) is above              0.1000000000
    Pure SDIIS when Max([F,P]) is below              0.0010000000
 Automatic ElectronSmearing (in case of problematic SCF convergence) disabled



 =================
 P R E C I S I O N  ***  (General: NumInt, NeglectFunctionTails, ...)  ***
 =================
  

 NumInt:           Target precision:                12.0000000000
 -------           Initial precision:               10.0000000000
                   Min. precision (optimization):   10.0000000000

 Neglect Functions:          Basis functions:        0.1000000000E-13
 ------------------          Fit functions:          0.1000000000E-13



 ===========================
 L I N E A R   S C A L I N G
 ===========================
  

 Cut-off radii density fit:                        0.1000000000E-97
 Overlap cut-off criterion AO matrix elements:     0.1000000000E-97
 Cut-offs for Coulomb potential and fitted density:0.1000000000E-97
 Cut-off criterion for Coulomb multipole terms:    0.1000000000E-97
 Progressive Convergence parameter:                 0.000000000    
1
 ***************************************************************************************************



                                            ***************************
                                            *  C O M P U T A T I O N  *
                                            ***************************
  

 Number of elements of the density matrix on this node (used, total):        45        45



 ===========================================
 Numerical Integration : Fuzzy Cells (Becke)
 ===========================================
  
 Becke grid quality: VERYGOOD       
  
 Lebedev angular grid order:             min:  13 max:  41
 Nr. of radial points:                   min:  68 max:  68

 Total nr. of points:         68
 Nr. of blocks:                1
 Block length:                68
 Nr. of dummy points:          0


 Test of Precision of the Numerical Integration Grid
 ===================================================

 Integral of the Total Core Density:                   2.00000004779027
 Relative Error:                                       2.390E-08



 ========================
 Density Fitting (zlmFit)
 ========================
  
 ZlmFit Fit Quality: VERYGOOD       
  
 Max L-expansion:                        min:   0 max:   0
 Nr. of radial interpolation points:     min: 150 max: 150



 =====
 S C F  ***  ScaSCF  ***
 =====
  

 CYCLE    1
 SCF Error: norm([F,P])=      0.000000000000, max([F,P])=      0.000000000000
 orbitals (Q,E):
 ---------------
 S :1...2            ( 2.00    -3.8308)  ( 0.00    -1.5342)
 P :1...2            ( 3.00    -3.5256)  ( 0.00    -1.4645)

 CYCLE    2
 SCF Error: norm([F,P])=      1.549673975551, max([F,P])=      1.258101921759
 orbitals (Q,E):
 ---------------
 S :1...2            ( 2.00    -0.1903)  ( 0.00     1.2168)
 P :1...2            ( 3.00     0.1546)  ( 0.00     1.2047)

 CYCLE    3
  SDIIS (wt  0.000):  0.4674  0.5326
 A-DIIS (wt  1.000):  0.3240  0.6760
  DIIS coefficients:  0.3240  0.6760
 SCF Error: norm([F,P])=      1.360249054281, max([F,P])=      1.048050156299
 orbitals (Q,E):
 ---------------
 S :1...2            ( 2.00    -0.8381)  ( 0.00     0.5861)
 P :1...2            ( 3.00    -0.4109)  ( 0.00     0.4817)

 CYCLE    4
  SDIIS (wt  0.000):  0.1928  0.8072
 A-DIIS (wt  1.000):  0.0000  1.0000
  DIIS coefficients:  0.0000  1.0000
 SCF Error: norm([F,P])=      0.325925918927, max([F,P])=      0.228226698732
 orbitals (Q,E):
 ---------------
 S :1...2            ( 2.00    -0.5797)  ( 0.00     0.7788)
 P :1...2            ( 3.00    -0.1643)  ( 0.00     0.6846)

 CYCLE    5
  SDIIS (wt  0.000):  0.4892  0.5108
 A-DIIS (wt  1.000):  0.4642  0.5358
  DIIS coefficients:  0.4642  0.5358
 SCF Error: norm([F,P])=      0.312119029167, max([F,P])=      0.221835145933
 orbitals (Q,E):
 ---------------
 S :1...2            ( 2.00    -0.6950)  ( 0.00     0.6844)
 P :1...2            ( 3.00    -0.2715)  ( 0.00     0.5814)

 CYCLE    6
  SDIIS (wt  0.928):  0.0359  0.9641
 A-DIIS (wt  0.072):  0.0000  1.0000
  DIIS coefficients:  0.0333  0.9667
 SCF Error: norm([F,P])=      0.011627935283, max([F,P])=      0.008114454643
 orbitals (Q,E):
 ---------------
 S :1...2            ( 2.00    -0.6895)  ( 0.00     0.6886)
 P :1...2            ( 3.00    -0.2663)  ( 0.00     0.5858)

 CYCLE    7
  SDIIS (wt  1.000):  0.0715  0.9285
  DIIS coefficients:  0.0715  0.9285
 SCF Error: norm([F,P])=      0.000895557034, max([F,P])=      0.000636506786
 orbitals (Q,E):
 ---------------
 S :1...2            ( 2.00    -0.6898)  ( 0.00     0.6884)
 P :1...2            ( 3.00    -0.2666)  ( 0.00     0.5855)

 CYCLE    8
  SDIIS (wt  1.000): -0.0084  1.0084
  DIIS coefficients: -0.0084  1.0084
 SCF Error: norm([F,P])=      0.000007431471, max([F,P])=      0.000005244833
 orbitals (Q,E):
 ---------------
 S :1...2            ( 2.00    -0.6898)  ( 0.00     0.6884)
 P :1...2            ( 3.00    -0.2666)  ( 0.00     0.5855)

 CYCLE    9
  SDIIS (wt  1.000):  0.0035  0.9965
  DIIS coefficients:  0.0035  0.9965
 SCF Error: norm([F,P])=      0.000000026230, max([F,P])=      0.000000018481
 orbitals (Q,E):
 ---------------
 S :1...2            ( 2.00    -0.6898)  ( 0.00     0.6884)
 P :1...2            ( 3.00    -0.2666)  ( 0.00     0.5855)

 CYCLE   10
  SDIIS (wt  1.000):  0.0008  0.9992
  DIIS coefficients:  0.0008  0.9992
 SCF Error: norm([F,P])=      0.000000000021, max([F,P])=      0.000000000015
 orbitals (Q,E):
 ---------------
 S :1...2            ( 2.00    -0.6898)  ( 0.00     0.6884)
 P :1...2            ( 3.00    -0.2666)  ( 0.00     0.5855)

 SCF CONVERGED

 CYCLE   11
1
 ***************************************************************************************************



                                                *******************
                                                *  R E S U L T S  *
                                                *******************
  
 *** Using FIT density in Focky
  SDIIS (wt  1.000):  0.0005  0.9995
  DIIS coefficients:  0.0005  0.9995
 SCF Error: norm([F,P])=      0.000000000000, max([F,P])=      0.000000000000

 Scaled ZORA Orbital Energies, per Irrep and Spin:
 =================================================
                        Occup              E (au)              E (eV)       Diff (eV) with prev. cycle
                        -----      --------------------        ------       --------------------------
 S
               1        2.000     -0.68979333234436E+00       -18.770               1.57E-13
               2        0.000      0.68835668824347E+00        18.731
 P
               1        3.000     -0.26655778219350E+00        -7.253               1.57E-13
               2        0.000      0.58549619457877E+00        15.932


 Partially Occupied:
               1 P                -0.26655778219350E+00
  
 HOMO :        1 S                -0.68979333234436E+00
 LUMO :        2 P                 0.58549619457877E+00
  


 Orbital Energies, all Irreps
 ========================================

 Irrep        no.  (spin)   Occup              E (au)                E (eV)
 ---------------------------------------------------------------------------
 S             1             2.00       -0.68979333234436E+00       -18.7702
 P             1             3.00       -0.26655778219350E+00        -7.2534
 P             2             0.00        0.58549619457877E+00        15.9322
 S             2             0.00        0.68835668824347E+00        18.7311


 Scaled ZORA Orbital Energies of the Core Orbitals:
 ==================================================

 (Note that the atoms are grouped by atomtype, see the labels, and may hence NOT be in input order)

 AtomType  Orbital  Atom                   E (au)                        E (eV)
 --------  -------  ----           --------------------        ----------------
 N           1S        1          -0.14166659762581E+02                -385.494



 =======================================
 M U L L I K E N   P O P U L A T I O N S
 =======================================
  
 The survey below gives for each atom:
 a) the total charge (Z minus electrons)
 b) the net spin polarization (nr of electrons spin-A minus spin-B)
 c) for each spin the atomic electron valence density (integrated) per L-value.

 Atom              Charge    Spin density          S         P         D         F
 ----              ------    ------------       ------    ------    ------    ------
 1 N              -0.0000                       2.0000    3.0000    0.0000    0.0000

 Populations of individual BAS functions
 ----------------------------------------
 1 N            0.0005  0.8702  1.1293  0.4947  0.4947  0.4947  0.5053  0.5053  0.5053

 Gross Charges per Atom (Z minus electrons)
 ==========================================
            -0.0000
 Net Total: -0.00000000



 =======================================================================
 Electrostatic potential at the Nuclei due to electrons and other nuclei
 =======================================================================
  
         Atom                  Potential
         ----                  ---------
     1)   N                  18.25311827
 
 
 ========================
 No memory problems found
 ========================
 
 Maximum number of active allocate calls:         319
 
 *******************************************************************************

                             A D F   E X I T
 NORMAL TERMINATION



 =================
 Timing Statistics
 =================
  
 Total Used :                     CPU=        0.59      System=        0.09     Elapsed=        0.98

 Calls  Section                     ( Mean, Percentage )
 ---------------------------------------------------------------------------------------------------
     3  ><      ................      0.00    0.78             0.00    1.07             0.00    0.88
     1  INIT    ................      0.08   13.58             0.01    7.64             0.10   10.07
     1  GEOMET  ................      0.03    4.66             0.01   14.66             0.07    6.85
     1  INPUTA  ................      0.00    0.63             0.00    2.57             0.01    1.02
     1  MAINSY  ................      0.01    1.52             0.01   10.96             0.04    3.79
     1  SYMFIT  ................      0.00    0.20             0.00    1.25             0.00    0.29
     1  CORORT  ................      0.00    0.10             0.00    1.27             0.00    0.39
     1  SYMORB  ................      0.00    0.16             0.00    0.76             0.00    0.28
     1  CLSMAT  ................      0.01    1.47             0.00    0.15             0.02    1.56
     1  ORTHON  ................      0.01    1.72             0.00    0.00             0.01    1.32
     1  GENPT   ................      0.02    3.10             0.00    1.06             0.03    3.17
     1  PTBAS   ................      0.01    1.45             0.00    2.35             0.02    1.79
    11  FOCKY   ................      0.03   55.01             0.00   25.31             0.04   44.29
    11  FOCKTR  ................      0.00    1.64             0.00    4.16             0.00    2.89
    11  SDIIS   ................      0.00    6.58             0.00   13.70             0.01   12.69
     1  COREPS  ................      0.02    3.66             0.01    6.47             0.04    3.82
     1  POPAN   ................      0.01    1.08             0.00    1.29             0.01    1.41
     1  DEBYE   ................      0.00    0.35             0.00    0.66             0.01    0.52
     1  EXIT PROCEDURE .........      0.01    2.33             0.00    4.66             0.03    2.96


 Currently Open Files (EXIT00)
 ====================

 Unit    Access Format  Status   Type       Ident (file)
 -------------------------------------------------------
   3      SEQ    FORM   TRANSP  NORMAL      LOGFILE
                                          ( logfile )

 ***************************************************************************************************
 (LOGFILE)
 <Feb04-2021> <20:27:07>  DIRAC 2019  RunTime: Feb04-2021 20:27:07  Nodes: 1  Procs: 1
 <Feb04-2021> <20:27:07>  NORMAL TERMINATION
 <Feb04-2021> <20:27:07>  END
 <Feb04-2021> <20:27:07>  ADF 2019  RunTime: Feb04-2021 20:27:07  Nodes: 1  Procs: 1
 <Feb04-2021> <20:27:07>  Hydrogen (DZ)
 <Feb04-2021> <20:27:07>  RunType   : CREATE
 <Feb04-2021> <20:27:07>  Net Charge: 0 (Nuclei minus Electrons)
 <Feb04-2021> <20:27:07>  Symmetry  : ATOM
  Coordinates
    Atom         X           Y           Z   (Angstrom)
    1.H         0.000000    0.000000    0.000000
 <Feb04-2021> <20:27:07>  >>>> CORORT
 <Feb04-2021> <20:27:07>  >>>> CLSMAT
 <Feb04-2021> <20:27:07>  >>>> ORTHON
 <Feb04-2021> <20:27:07>  >>>> GENPT
 <Feb04-2021> <20:27:07>  Block Length=  64
 <Feb04-2021> <20:27:07>  >>>> PTBAS
 <Feb04-2021> <20:27:07>  >>>> CYCLE
 <Feb04-2021> <20:27:07>              |Error|         MaxErr       Wt(A-DIIS)
 <Feb04-2021> <20:27:07>      1      0.00000000      0.00000000
 <Feb04-2021> <20:27:07>      2      0.03300193      0.03300193
 <Feb04-2021> <20:27:07>      3      0.00595445      0.00595445    100.0
 <Feb04-2021> <20:27:07>      4      0.00102040      0.00102040      0.0
 <Feb04-2021> <20:27:07>      5      0.00000144      0.00000144      0.0
 <Feb04-2021> <20:27:07>      6      0.00000000      0.00000000      0.0
 <Feb04-2021> <20:27:07>  SCF converged
 <Feb04-2021> <20:27:07>      7      0.00000000      0.00000000      0.0
 <Feb04-2021> <20:27:07>  >>>> POPAN
 <Feb04-2021> <20:27:07>  >>>> DEBYE
 <Feb04-2021> <20:27:08>  NORMAL TERMINATION
 <Feb04-2021> <20:27:08>  END
 <Feb04-2021> <20:27:08>  DIRAC 2019  RunTime: Feb04-2021 20:27:08  Nodes: 1  Procs: 1
 <Feb04-2021> <20:27:08>  NORMAL TERMINATION
 <Feb04-2021> <20:27:08>  END
 <Feb04-2021> <20:27:08>  ADF 2019  RunTime: Feb04-2021 20:27:08  Nodes: 1  Procs: 1
 <Feb04-2021> <20:27:08>  Nitrogen (DZ, 1s frozen)
 <Feb04-2021> <20:27:08>  RunType   : CREATE
 <Feb04-2021> <20:27:08>  Net Charge: 0 (Nuclei minus Electrons)
 <Feb04-2021> <20:27:08>  Symmetry  : ATOM
  Coordinates
    Atom         X           Y           Z   (Angstrom)
    1.N         0.000000    0.000000    0.000000
 <Feb04-2021> <20:27:08>  >>>> CORORT
 <Feb04-2021> <20:27:08>  >>>> CLSMAT
 <Feb04-2021> <20:27:08>  >>>> ORTHON
 <Feb04-2021> <20:27:08>  >>>> GENPT
 <Feb04-2021> <20:27:08>  Block Length=  68
 <Feb04-2021> <20:27:08>  >>>> PTBAS
 <Feb04-2021> <20:27:08>  >>>> CYCLE
 <Feb04-2021> <20:27:08>              |Error|         MaxErr       Wt(A-DIIS)
 <Feb04-2021> <20:27:08>      1      0.00000000      0.00000000
 <Feb04-2021> <20:27:08>      2      1.54967398      1.25810192
 <Feb04-2021> <20:27:08>      3      1.36024905      1.04805016    100.0
 <Feb04-2021> <20:27:09>      4      0.32592592      0.22822670    100.0
 <Feb04-2021> <20:27:09>      5      0.31211903      0.22183515    100.0
 <Feb04-2021> <20:27:09>      6      0.01162794      0.00811445      7.2
 <Feb04-2021> <20:27:09>      7      0.00089556      0.00063651      0.0
 <Feb04-2021> <20:27:09>      8      0.00000743      0.00000524      0.0
 <Feb04-2021> <20:27:09>      9      0.00000003      0.00000002      0.0
 <Feb04-2021> <20:27:09>     10      0.00000000      0.00000000      0.0
 <Feb04-2021> <20:27:09>  SCF converged
 <Feb04-2021> <20:27:09>     11      0.00000000      0.00000000      0.0
 <Feb04-2021> <20:27:09>  >>>> POPAN
 <Feb04-2021> <20:27:09>  >>>> DEBYE
 <Feb04-2021> <20:27:09>  NORMAL TERMINATION
 <Feb04-2021> <20:27:09>  END

 *******************************************************************************
 *                                                                             *
 *  -------------------------------------                                      *
 *   Amsterdam Density Functional  (ADF)         2019                          *
 *  -------------------------------------                                      *
 *                                               r74351 2019-04-25             *
 *                                                                             *
 *                                                                             *
 *                            =====================                            *
 *                            |                   |                            *
 *                            |     D I R A C     |                            *
 *                            |                   |                            *
 *                            =====================                            *
 *                                                                             *
 *                                                                             *
 *   Online information and documentation:  https://www.scm.com/support/       *
 *   E-mail:  support@scm.com   info@scm.com                                   *
 *                                                                             *
 *   Scientific publications using ADF results must be properly referenced     *
 *   See the User Manuals (or the web site) for recommended citations          *
 *   The terms and conditions of the End User License Agreement apply to       *
 *   the use of ADF, https://www.scm.com/license-terms/                        *
 *                                                                             *
 **********************  x86_64_linux_intel / intelmpi  ************************
 
 Licensed to: Dr. Emilie Guidez / UC Denver / Denver / CO / USA
 SCM User ID: u20218
  
 DIRAC 2019  RunTime: Feb04-2021 20:27:09  Nodes: 1  Procs: 1

 Temporary files are created in /home/chemistry/limjae/scr/kid_0.1096778999

1
 GOLD ATOM 4d CORE RELATIVISTIC, Point Nuc, A and c from libt
 N J RN H ZN XION ANUC CLIGHT
 5000   22100.00000000197.36710137 79.00000000  0.00000000  196.966551  0.1370360E+03
  PH   PHI     EPS        DEL        DELRVR
  0.30  0.30     2500.00  0.00001000  0.00001000
 IDIRC  NC1  NDEBU NPRIN  IPUN IRCOR IWCOR
   1   300     0     0     0     0    14
   XALPHA      XLATTER      RNUC
  0.70000000  0.00000000  0.00000000 Point Charge
   XN   XL   XJ      XE          XZ      XDELL
  1.0  0.0  0.5   -2600.000       2.000     0.00000
  2.0  0.0  0.5    -425.000       2.000     0.00000
  2.0  1.0  0.5    -425.000       2.000     0.00000
  2.0  1.0  1.5    -425.000       4.000     0.00000
  3.0  0.0  0.5    -100.000       2.000     0.00000
  3.0  1.0  0.5    -100.000       2.000     0.00000
  3.0  1.0  1.5    -100.000       4.000     0.00000
  3.0  2.0  1.5     -80.000       4.000     0.00000
  3.0  2.0  2.5     -80.000       6.000     0.00000
  4.0  0.0  0.5     -22.000       2.000     0.00000
  4.0  1.0  0.5     -20.000       2.000     0.00000
  4.0  1.0  1.5     -20.000       4.000     0.00000
  4.0  2.0  1.5     -11.000       4.000     0.00000
  4.0  2.0  2.5     -11.000       6.000     0.00000
  4.0  3.0  2.5      -1.000       6.000     0.00000
  4.0  3.0  3.5      -1.000       8.000     0.00000
  5.0  0.0  0.5      -3.000       2.000     0.00000
  5.0  1.0  0.5      -2.200       2.000     0.00000
  5.0  1.0  1.5      -2.200       4.000     0.00000
  5.0  2.0  1.5      -0.500       4.000     0.00000
  5.0  2.0  2.5      -0.500       6.000     0.00000
  6.0  0.0  0.5      -0.200       1.000     0.00000
 ICORP=  0  NPCL=  0  DEMP=0.00  PEPS=0.000000
 R(1)=  0.1000000E-08 D=  0.1005080E+01 RNUC=  0.0000000E+00
 converged at cycle   60  DENSITY AVERAGING    0.0786
  MAXIMUM ERROR IN R.V(R) IS   0.38523360E-05
 Q,EY,EV,EZ,ESUM,ETOT,RHO  0.790000E+02 -0.485545E+03 -0.336404E+05 -0.479937E+05 -0.117486E+05 -0.190466E+05  0.196298E-08


 DIRAC CALCULATION
1                    GOLD ATOM 4d CORE RELATIVISTIC, Point Nuc, A and c from libtc


 EXCHANGE COEFFICIENT=  0.7000000           TAIL CORRECTION=  0.           NUCLEAR RADIUS=  0.000E+00
0                       ORBITAL    N    L    J     ELECTRONS     EIGENVALUE                DELTA OF EIGENV.

                          1S1/2  1.0  0.0  0.5     2.000       -0.2963119E+04                 0.3731460E-04
                          2S1/2  2.0  0.0  0.5     2.000       -0.5226069E+03                 0.3102938E-04
                          2P1/2  2.0  1.0  0.5     2.000       -0.5013071E+03                 0.3249986E-04
                          2P3/2  2.0  1.0  1.5     4.000       -0.4338328E+03                 0.3150316E-04
                          3S1/2  3.0  0.0  0.5     2.000       -0.1233461E+03                 0.2017137E-04
                          3P1/2  3.0  1.0  0.5     2.000       -0.1137481E+03                 0.2099254E-04
                          3P3/2  3.0  1.0  1.5     4.000       -0.9885554E+02                 0.1984570E-04
                          3D3/2  3.0  2.0  1.5     4.000       -0.8287610E+02                 0.2174809E-04
                          3D5/2  3.0  2.0  2.5     6.000       -0.7967162E+02                 0.2135379E-04
                          4S1/2  4.0  0.0  0.5     2.000       -0.2673972E+02                 0.1054160E-04
                          4P1/2  4.0  1.0  0.5     2.000       -0.2264484E+02                 0.1056903E-04
                          4P3/2  4.0  1.0  1.5     4.000       -0.1906321E+02                 0.9669504E-05
                          4D3/2  4.0  2.0  1.5     4.000       -0.1235180E+02                 0.9615342E-05
                          4D5/2  4.0  2.0  2.5     6.000       -0.1168427E+02                 0.9341815E-05
                          4F5/2  4.0  3.0  2.5     6.000       -0.3062221E+01                 0.8653601E-05
                          4F7/2  4.0  3.0  3.5     8.000       -0.2921300E+01                 0.8510675E-05
                          5S1/2  5.0  0.0  0.5     2.000       -0.3963776E+01                 0.3355907E-05
                          5P1/2  5.0  1.0  0.5     2.000       -0.2629660E+01                 0.2984355E-05
                          5P3/2  5.0  1.0  1.5     4.000       -0.2015087E+01                 0.2530381E-05
                          5D3/2  5.0  2.0  1.5     4.000       -0.2662248E+00                 0.1434098E-05
                          5D5/2  5.0  2.0  2.5     6.000       -0.2094938E+00                 0.1305568E-05
                          6S1/2  6.0  0.0  0.5     1.000       -0.1940684E+00                 0.3484321E-06


                                        NUCLEAR CHARGE=   79.000000
                            INTEGRAL OF CHARGE DENSITY=   79.000000
                           SUM OF THE ORBITAL ENERGIES= -11748.5839
                                          TOTAL ENERGY= -19046.6065
                                        KINETIC ENERGY=  21891.8398
                             NUCLEAR ATTRACTION ENERGY= -47993.6963
                             ELECTRON REPULSION ENERGY=   7419.4090
                                       EXCHANGE ENERGY=   -364.1591

 *******************************************************************************

                             D I R A C   E X I T
 NORMAL TERMINATION



 =================
 Timing Statistics
 =================
  
 Total Used :                     CPU=        0.60      System=        0.02     Elapsed=        0.78

 Calls  Section                     ( Mean, Percentage )
 ---------------------------------------------------------------------------------------------------
     2  ><      ................      0.00    0.00             0.00    0.03             0.00    0.00
     1  EXIT PROCEDURE .........      0.60  100.00             0.02   99.97             0.78  100.00


 Currently Open Files (EXIT00)
 ====================

 Unit    Access Format  Status   Type       Ident (file)
 -------------------------------------------------------
   3      SEQ    FORM   TRANSP  NORMAL      LOGFILE
                                          ( logfile )
 
Create Au   file=DZ-Au.4d
XC
 GGA PBE
End
relativistic ZORA
Corepotentials t12.rel
End

 *******************************************************************************
 *                                                                             *
 *  -------------------------------------                                      *
 *   Amsterdam Density Functional  (ADF)         2019                          *
 *  -------------------------------------                                      *
 *                                               r74351 2019-04-25             *
 *                                                                             *
 *                                                                             *
 *                              =================                              *
 *                              |               |                              *
 *                              |     A D F     |                              *
 *                              |               |                              *
 *                              =================                              *
 *                                                                             *
 *                                                                             *
 *   Online information and documentation:  https://www.scm.com/support/       *
 *   E-mail:  support@scm.com   info@scm.com                                   *
 *                                                                             *
 *   Scientific publications using ADF results must be properly referenced     *
 *   See the User Manuals (or the web site) for recommended citations          *
 *   The terms and conditions of the End User License Agreement apply to       *
 *   the use of ADF, https://www.scm.com/license-terms/                        *
 *                                                                             *
 **********************  x86_64_linux_intel / intelmpi  ************************
 
 Licensed to: Dr. Emilie Guidez / UC Denver / Denver / CO / USA
 SCM User ID: u20218
  
 ADF 2019  RunTime: Feb04-2021 20:27:10  Nodes: 1  Procs: 1

 Temporary files are created in /home/chemistry/limjae/scr/kid_0.1814071547

 Gold (DZ, 4d frozen)



 ===========================
 A T T A C H E D   F I L E S
 ===========================
  
 CREATE - Data File:    DZ-Au.4d
                        Gold (DZ, 4d frozen)
 Core Potentials:
         file : t12.rel



 ===============================
 M O D E L   P A R A M E T E R S
 ===============================
  
 DENSITY FUNCTIONAL POTENTIAL (scf)
    LDA:                               PW92                                    == Not Default ==
    Gradient Corrections:              PBEc PBEx                               == Not Default ==

 SPIN  (restricted / unrestr.)
    Molecule:                          Restricted                               

 OTHER ASPECTS
    Relativistic Corrections:          scalar (ZORA,MAPA)                      == Not Default ==

    Nuclear Charge Density Model:      Point Charge Nuclei                      
    Core Treatment:                    Frozen Orbital(s)                        

    Hyperfine or Zeeman Interaction:   ---                                      



 =====================================
 S Y M M E T R Y ,   E L E C T R O N S
 =====================================
  
 Symmetry: ATOM

 Irreducible Representations, including subspecies
 -------------------------------------------------
 S
 P:x  P:y  P:z
 D:z2  D:x2-y2  D:xy  D:xz  D:yz
 F:z3  F:z  F:xyz  F:z2x  F:z2y  F:x  F:y


 Configuration of Valence Electrons
 ==================================

          Occupation Numbers
          -------------------------------------------------
 S        2 1
 P        6
 D        10
 F        14
          -------------------------------------------------

 Total:   33

 Net Charge: 0 (Nuclei minus Electrons)

 Preset values for MO occupations will be applied through SCF cycle no. 1000000
 Thereafter, the program will assign electrons to MOs that are spatially
 similar to the occupied MOs in a "reference" cycle ("KeepOrbitals").
 The reference cycle is always the PREVIOUS cycle: it will evolve with
 the SCF procedure.



 ================================
 (Slater-type)  F U N C T I O N S  ***  (Basis and Fit)  ***
 ================================
  

 Atom Type    1  (Au)
 ==============

 Valence Basis Sets:  21
 -----------------------
   1 S   57.000000
   2 S   36.650000
   3 S   21.050000
   4 S   12.400000
   2 P   39.650000
   3 P   17.950000
   4 P   12.550000
   3 D   22.100000
   4 D   11.200000
   5 S    7.000000
   5 S    4.600000
   6 S    2.850000
   6 S    1.510000
   5 P    6.000000
   5 P    3.700000
   5 D    4.350000
   5 D    2.000000
   4 F   16.150000
   4 F    8.900000
   4 F    4.900000
   6 P    1.950000

 Frozen Core Shells
 ------------------
    S:  4
    P:  3
    D:  2


 BAS: List of all Elementary Cartesian Basis Functions
 =====================================================

 The numbering in the list below (to the right of the function characteristics) is referred
 to in print-outs of MO eigenvectors and Mulliken populations in the BAS representation
 (as contrasted to the SFO representation).

 Notes:
 1. The functions are characterized by a polynomial prefactor (powers of x,y,z and r) and
    an exponential decay factor alpha.
 2. Since the basis sets are specific for an atom TYPE, the individual functions occur on
    all atoms of that type.
 3. The word 'Core' in the left margin signals that it is a Core Function (CF) : not a
    degree of freedom in the valence set, but only used to ensure orthogonalization of
    the other valence basis functions on the frozen Core Orbitals.


 (power of) X  Y  Z  R     Alpha  on Atom
            ==========     =====     ==========

 Au                                   1
                                  ---------------------------------------------------------------------------
    Core    0  0  0  0    57.000      1
    Core    0  0  0  1    36.650      2
    Core    0  0  0  2    21.050      3
    Core    0  0  0  3    12.400      4
    Core    1  0  0  0    39.650      5
    Core    0  1  0  0    39.650      6
    Core    0  0  1  0    39.650      7
    Core    1  0  0  1    17.950      8
    Core    0  1  0  1    17.950      9
    Core    0  0  1  1    17.950     10
    Core    1  0  0  2    12.550     11
    Core    0  1  0  2    12.550     12
    Core    0  0  1  2    12.550     13
    Core    2  0  0  0    22.100     14
    Core    1  1  0  0    22.100     15
    Core    1  0  1  0    22.100     16
    Core    0  2  0  0    22.100     17
    Core    0  1  1  0    22.100     18
    Core    0  0  2  0    22.100     19
    Core    2  0  0  1    11.200     20
    Core    1  1  0  1    11.200     21
    Core    1  0  1  1    11.200     22
    Core    0  2  0  1    11.200     23
    Core    0  1  1  1    11.200     24
    Core    0  0  2  1    11.200     25
            0  0  0  4     7.000     26
            0  0  0  4     4.600     27
            0  0  0  5     2.850     28
            0  0  0  5     1.510     29
            1  0  0  3     6.000     30
            0  1  0  3     6.000     31
            0  0  1  3     6.000     32
            1  0  0  3     3.700     33
            0  1  0  3     3.700     34
            0  0  1  3     3.700     35
            2  0  0  2     4.350     36
            1  1  0  2     4.350     37
            1  0  1  2     4.350     38
            0  2  0  2     4.350     39
            0  1  1  2     4.350     40
            0  0  2  2     4.350     41
            2  0  0  2     2.000     42
            1  1  0  2     2.000     43
            1  0  1  2     2.000     44
            0  2  0  2     2.000     45
            0  1  1  2     2.000     46
            0  0  2  2     2.000     47
            3  0  0  0    16.150     48
            2  1  0  0    16.150     49
            2  0  1  0    16.150     50
            1  2  0  0    16.150     51
            1  1  1  0    16.150     52
            1  0  2  0    16.150     53
            0  3  0  0    16.150     54
            0  2  1  0    16.150     55
            0  1  2  0    16.150     56
            0  0  3  0    16.150     57
            3  0  0  0     8.900     58
            2  1  0  0     8.900     59
            2  0  1  0     8.900     60
            1  2  0  0     8.900     61
            1  1  1  0     8.900     62
            1  0  2  0     8.900     63
            0  3  0  0     8.900     64
            0  2  1  0     8.900     65
            0  1  2  0     8.900     66
            0  0  3  0     8.900     67
            3  0  0  0     4.900     68
            2  1  0  0     4.900     69
            2  0  1  0     4.900     70
            1  2  0  0     4.900     71
            1  1  1  0     4.900     72
            1  0  2  0     4.900     73
            0  3  0  0     4.900     74
            0  2  1  0     4.900     75
            0  1  2  0     4.900     76
            0  0  3  0     4.900     77
            1  0  0  4     1.950     78
            0  1  0  4     1.950     79
            0  0  1  4     1.950     80

 Total number of charge fitting functions (nprimf)       327
 Total number of Cartesian basis functions (naos)         80
 Total number of Cartesian core functions  (ncos)         25



 BAS: List of all Elementary Cartesian Basis Functions
 =====================================================

 The numbering in the list below (to the right of the function characteristics) is referred
 to in print-outs of MO eigenvectors and Mulliken populations in the BAS representation
 (as contrasted to the SFO representation).

 Notes:
 1. The functions are characterized by a polynomial prefactor (powers of x,y,z and r) and
    an exponential decay factor alpha.
 2. Since the basis sets are specific for an atom TYPE, the individual functions occur on
    all atoms of that type.
 3. The word 'Core' in the left margin signals that it is a Core Function (CF) : not a
    degree of freedom in the valence set, but only used to ensure orthogonalization of
    the other valence basis functions on the frozen Core Orbitals.


 (power of) X  Y  Z  R     Alpha  on Atom
            ==========     =====     ==========

 Au                                   1
                                  ---------------------------------------------------------------------------
    Core    0  0  0  0    57.000      1
    Core    0  0  0  1    36.650      2
    Core    0  0  0  2    21.050      3
    Core    0  0  0  3    12.400      4
    Core    1  0  0  0    39.650      5
    Core    0  1  0  0    39.650      6
    Core    0  0  1  0    39.650      7
    Core    1  0  0  1    17.950      8
    Core    0  1  0  1    17.950      9
    Core    0  0  1  1    17.950     10
    Core    1  0  0  2    12.550     11
    Core    0  1  0  2    12.550     12
    Core    0  0  1  2    12.550     13
    Core    2  0  0  0    22.100     14
    Core    1  1  0  0    22.100     15
    Core    1  0  1  0    22.100     16
    Core    0  2  0  0    22.100     17
    Core    0  1  1  0    22.100     18
    Core    0  0  2  0    22.100     19
    Core    2  0  0  1    11.200     20
    Core    1  1  0  1    11.200     21
    Core    1  0  1  1    11.200     22
    Core    0  2  0  1    11.200     23
    Core    0  1  1  1    11.200     24
    Core    0  0  2  1    11.200     25
            0  0  0  4     7.000     26
            0  0  0  4     4.600     27
            0  0  0  5     2.850     28
            0  0  0  5     1.510     29
            1  0  0  3     6.000     30
            0  1  0  3     6.000     31
            0  0  1  3     6.000     32
            1  0  0  3     3.700     33
            0  1  0  3     3.700     34
            0  0  1  3     3.700     35
            2  0  0  2     4.350     36
            1  1  0  2     4.350     37
            1  0  1  2     4.350     38
            0  2  0  2     4.350     39
            0  1  1  2     4.350     40
            0  0  2  2     4.350     41
            2  0  0  2     2.000     42
            1  1  0  2     2.000     43
            1  0  1  2     2.000     44
            0  2  0  2     2.000     45
            0  1  1  2     2.000     46
            0  0  2  2     2.000     47
            3  0  0  0    16.150     48
            2  1  0  0    16.150     49
            2  0  1  0    16.150     50
            1  2  0  0    16.150     51
            1  1  1  0    16.150     52
            1  0  2  0    16.150     53
            0  3  0  0    16.150     54
            0  2  1  0    16.150     55
            0  1  2  0    16.150     56
            0  0  3  0    16.150     57
            3  0  0  0     8.900     58
            2  1  0  0     8.900     59
            2  0  1  0     8.900     60
            1  2  0  0     8.900     61
            1  1  1  0     8.900     62
            1  0  2  0     8.900     63
            0  3  0  0     8.900     64
            0  2  1  0     8.900     65
            0  1  2  0     8.900     66
            0  0  3  0     8.900     67
            3  0  0  0     4.900     68
            2  1  0  0     4.900     69
            2  0  1  0     4.900     70
            1  2  0  0     4.900     71
            1  1  1  0     4.900     72
            1  0  2  0     4.900     73
            0  3  0  0     4.900     74
            0  2  1  0     4.900     75
            0  1  2  0     4.900     76
            0  0  3  0     4.900     77
            1  0  0  4     1.950     78
            0  1  0  4     1.950     79
            0  0  1  4     1.950     80
1
 ***************************************************************************************************



                                              ***********************
                                              *  T E C H N I C A L  *
                                              ***********************
  



 =============================================================
 P A R A L L E L I Z A T I O N  and  V E C T O R I Z A T I O N
 =============================================================
  
 Nr of parallel processes:                                1
 Maximum vector length in NumInt loops:                 128



 =====================
 S C F   U P D A T E S
 =====================
  
 Max. nr. of cycles:                               300
 Convergence criterion:                              0.0000000100
   secondary criterion:                              0.0000000100

 Mix parameter (when DIIS does not apply):           0.2000000000
 Special mix parameter for the first cycle:          1.0000000000
 Mixed ADIIS+SDIIS will be used                  
    Max number of expansion vectors:                10
    Pure ADIIS when Max([F,P]) is above              0.1000000000
    Pure SDIIS when Max([F,P]) is below              0.0010000000
 Automatic ElectronSmearing (in case of problematic SCF convergence) disabled



 =================
 P R E C I S I O N  ***  (General: NumInt, NeglectFunctionTails, ...)  ***
 =================
  

 NumInt:           Target precision:                12.0000000000
 -------           Initial precision:               10.0000000000
                   Min. precision (optimization):   10.0000000000

 Neglect Functions:          Basis functions:        0.1000000000E-13
 ------------------          Fit functions:          0.1000000000E-13



 ===========================
 L I N E A R   S C A L I N G
 ===========================
  

 Cut-off radii density fit:                        0.1000000000E-97
 Overlap cut-off criterion AO matrix elements:     0.1000000000E-97
 Cut-offs for Coulomb potential and fitted density:0.1000000000E-97
 Cut-off criterion for Coulomb multipole terms:    0.1000000000E-97
 Progressive Convergence parameter:                 0.000000000    
1
 ***************************************************************************************************



                                            ***************************
                                            *  C O M P U T A T I O N  *
                                            ***************************
  

 Number of elements of the density matrix on this node (used, total):      3240      3240



 ===========================================
 Numerical Integration : Fuzzy Cells (Becke)
 ===========================================
  
 Becke grid quality: VERYGOOD       
  
 Lebedev angular grid order:             min:  13 max:  41
 Nr. of radial points:                   min: 123 max: 123

 Total nr. of points:        123
 Nr. of blocks:                1
 Block length:               123
 Nr. of dummy points:          0


 Test of Precision of the Numerical Integration Grid
 ===================================================

 Integral of the Total Core Density:                  45.99999991226612
 Relative Error:                                      -1.907E-09



 ========================
 Density Fitting (zlmFit)
 ========================
  
 ZlmFit Fit Quality: VERYGOOD       
  
 Max L-expansion:                        min:   0 max:   0
 Nr. of radial interpolation points:     min: 270 max: 270



 =====
 S C F  ***  ScaSCF  ***
 =====
  

 CYCLE    1
 SCF Error: norm([F,P])=      0.000000000000, max([F,P])=      0.000000000000
 orbitals (Q,E):
 ---------------
 S :1...4            ( 2.00   -36.7762)  ( 1.00   -21.6820)  ( 0.00   -12.9085)  ( 0.00    -7.1191)
 P :1...3            ( 6.00   -33.0866)  ( 0.00   -18.4007)  ( 0.00    -9.4584)
 D :1...2            (10.00   -25.1484)  ( 0.00   -11.3803)
[...]
 <Feb04-2021> <20:27:12>  >>>> GENPT
 <Feb04-2021> <20:27:13>  Block Length=  68
 <Feb04-2021> <20:27:13>  >>>> PTBAS
 <Feb04-2021> <20:27:13>  >>>> CYCLE
 <Feb04-2021> <20:27:13>              |Error|         MaxErr       Wt(A-DIIS)
 <Feb04-2021> <20:27:13>      1      0.00000000      0.00000000
 <Feb04-2021> <20:27:13>      2      2.51022395      1.83694100
 <Feb04-2021> <20:27:13>      3      2.38195714      1.61935802    100.0
 <Feb04-2021> <20:27:13>      4      0.46758430      0.27634710    100.0
 <Feb04-2021> <20:27:13>      5      0.50410652      0.30498859    100.0
 <Feb04-2021> <20:27:13>      6      0.01247625      0.00764533      6.7
 <Feb04-2021> <20:27:13>      7      0.00085022      0.00051605      0.0
 <Feb04-2021> <20:27:13>      8      0.00000244      0.00000146      0.0
 <Feb04-2021> <20:27:13>      9      0.00000001      0.00000000      0.0
 <Feb04-2021> <20:27:13>  SCF converged
 <Feb04-2021> <20:27:13>     10      0.00000000      0.00000000      0.0
 <Feb04-2021> <20:27:13>  >>>> POPAN
 <Feb04-2021> <20:27:13>  >>>> DEBYE
 <Feb04-2021> <20:27:13>  NORMAL TERMINATION
 <Feb04-2021> <20:27:13>  END
 <Feb04-2021> <20:27:13>  DIRAC 2019  RunTime: Feb04-2021 20:27:13  Nodes: 1  Procs: 1
 <Feb04-2021> <20:27:13>  NORMAL TERMINATION
 <Feb04-2021> <20:27:13>  END
 <Feb04-2021> <20:27:14>  ADF 2019  RunTime: Feb04-2021 20:27:14  Nodes: 1  Procs: 1
 <Feb04-2021> <20:27:14>  Carbon (DZ, 1s frozen)
 <Feb04-2021> <20:27:14>  RunType   : CREATE
 <Feb04-2021> <20:27:14>  Net Charge: 0 (Nuclei minus Electrons)
 <Feb04-2021> <20:27:14>  Symmetry  : ATOM
  Coordinates
    Atom         X           Y           Z   (Angstrom)
    1.C         0.000000    0.000000    0.000000
 <Feb04-2021> <20:27:14>  >>>> CORORT
 <Feb04-2021> <20:27:14>  >>>> CLSMAT
 <Feb04-2021> <20:27:14>  >>>> ORTHON
 <Feb04-2021> <20:27:14>  >>>> GENPT
 <Feb04-2021> <20:27:14>  Block Length=  68
 <Feb04-2021> <20:27:14>  >>>> PTBAS
 <Feb04-2021> <20:27:14>  >>>> CYCLE
 <Feb04-2021> <20:27:14>              |Error|         MaxErr       Wt(A-DIIS)
 <Feb04-2021> <20:27:14>      1      0.00000000      0.00000000
 <Feb04-2021> <20:27:14>      2      0.96385221      0.85255436
 <Feb04-2021> <20:27:14>      3      0.69816270      0.60759186    100.0
 <Feb04-2021> <20:27:14>      4      0.25244702      0.20719292    100.0
 <Feb04-2021> <20:27:14>      5      0.19639955      0.16352478    100.0
 <Feb04-2021> <20:27:14>      6      0.03180040      0.02617408     25.4
 <Feb04-2021> <20:27:14>      7      0.00638036      0.00527666      4.3
 <Feb04-2021> <20:27:14>      8      0.00018258      0.00015050      0.0
 <Feb04-2021> <20:27:14>      9      0.00000052      0.00000043      0.0
 <Feb04-2021> <20:27:14>     10      0.00000000      0.00000000      0.0
 <Feb04-2021> <20:27:14>  SCF converged
 <Feb04-2021> <20:27:14>     11      0.00000000      0.00000000      0.0
 <Feb04-2021> <20:27:14>  >>>> POPAN
 <Feb04-2021> <20:27:14>  >>>> DEBYE
 <Feb04-2021> <20:27:14>  NORMAL TERMINATION
 <Feb04-2021> <20:27:14>  END
 <Feb04-2021> <20:27:15>  DIRAC 2019  RunTime: Feb04-2021 20:27:15  Nodes: 1  Procs: 1
 <Feb04-2021> <20:27:15>  NORMAL TERMINATION
 <Feb04-2021> <20:27:15>  END
 <Feb04-2021> <20:27:15>  ADF 2019  RunTime: Feb04-2021 20:27:15  Nodes: 1  Procs: 1
 <Feb04-2021> <20:27:15>  Sulphur (DZ, 1s frozen)
 <Feb04-2021> <20:27:15>  RunType   : CREATE
 <Feb04-2021> <20:27:15>  Net Charge: 0 (Nuclei minus Electrons)
 <Feb04-2021> <20:27:15>  Symmetry  : ATOM
  Coordinates
    Atom         X           Y           Z   (Angstrom)
    1.S         0.000000    0.000000    0.000000
 <Feb04-2021> <20:27:15>  >>>> CORORT
 <Feb04-2021> <20:27:15>  >>>> CLSMAT
 <Feb04-2021> <20:27:15>  >>>> ORTHON
 <Feb04-2021> <20:27:15>  >>>> GENPT
 <Feb04-2021> <20:27:15>  Block Length=  81
 <Feb04-2021> <20:27:15>  >>>> PTBAS
 <Feb04-2021> <20:27:15>  >>>> CYCLE
 <Feb04-2021> <20:27:15>              |Error|         MaxErr       Wt(A-DIIS)
 <Feb04-2021> <20:27:15>      1      0.00000000      0.00000000
 <Feb04-2021> <20:27:15>      2     21.51261243      7.94990220    100.0
 <Feb04-2021> <20:27:15>      3      8.52424195      2.62505450    100.0
 <Feb04-2021> <20:27:16>      4      4.38544525      1.60446246    100.0
 <Feb04-2021> <20:27:16>      5      1.43256362      0.55140611    100.0
 <Feb04-2021> <20:27:16>      6      0.89172576      0.34614537    100.0
 <Feb04-2021> <20:27:16>      7      0.16625992      0.07286926     72.6
 <Feb04-2021> <20:27:16>      8      0.10006764      0.04307754     42.5
 <Feb04-2021> <20:27:16>      9      0.01425650      0.00614423      5.2
 <Feb04-2021> <20:27:16>     10      0.00065307      0.00028041      0.0
 <Feb04-2021> <20:27:16>     11      0.00000094      0.00000039      0.0
 <Feb04-2021> <20:27:16>     12      0.00000001      0.00000000      0.0
 <Feb04-2021> <20:27:16>  SCF converged
 <Feb04-2021> <20:27:16>     13      0.00000000      0.00000000      0.0
 <Feb04-2021> <20:27:16>  >>>> POPAN
 <Feb04-2021> <20:27:16>  >>>> DEBYE
 <Feb04-2021> <20:27:16>  NORMAL TERMINATION
 <Feb04-2021> <20:27:16>  END
 <Feb04-2021> <20:27:17>  ADF 2019  RunTime: Feb04-2021 20:27:17  Nodes: 1  Procs: 1
 <Feb04-2021> <20:27:17>  Au25 + Thiol + CYST compounds.
 <Feb04-2021> <20:27:17>  RunType   : SINGLE POINT
 <Feb04-2021> <20:27:17>  WARNING: Restricted Open-Shell calculation, Unrestricted setup may be needed
 <Feb04-2021> <20:27:17>  Net Charge: 0 (Nuclei minus Electrons)
 <Feb04-2021> <20:27:17>  Symmetry  : NOSYM
 <Feb04-2021> <20:27:17>  >>>> FRAGM
  Coordinates
    Atom         X           Y           Z   (Angstrom)
    1.Au        9.694737   10.687240   10.249612
    2.Au        9.321473   10.667420   13.092513
    3.Au       12.058543   10.756761   11.864350
    4.Au       10.369763   13.031278   11.692631
    5.Au       10.450764    8.300729   11.611104
    6.Au        7.446063   12.076824   11.221094
    7.Au        7.573692    9.155633   11.396866
    8.Au       11.755335   12.234845    9.037766
    9.Au       11.993789    9.289881    9.358045
   10.Au        8.849553   13.044952    8.890795
   11.Au        7.335314   10.501539    8.663252
   12.Au        9.161141    8.296697    8.826233
   13.Au       10.051317   10.703510    7.405974
   14.Au        6.376369   10.597214   13.791816
   15.Au        8.472763    7.935043   14.040547
   16.Au       10.672992   13.360590    6.281156
   17.Au       13.019706   10.776653    6.737050
   18.Au       13.323149    7.649988   11.584490
   19.Au       11.346050    6.386836    9.546664
   20.Au        8.134177   14.985345   10.993896
   21.Au        5.824313   13.263079    8.978466
   22.Au       13.342147   13.432178   11.361611
   23.Au       11.809648   12.304248   14.363232
   24.Au        6.214827    7.761077    9.040170
   25.Au        7.759808    8.788519    6.208083
   26.S         9.929741    6.260392   13.018266
   27.S         6.998048    9.087067   15.617396
   28.S         5.299306   12.432747   12.574564
   29.S        14.274381    9.221240    8.163387
   30.S         9.061237   14.948601    7.209008
   31.S        12.287151   12.184372    4.873154
   32.S         9.800998    6.149428    7.603169
   33.S        14.170064    9.631999   12.797298
   34.S        13.049474    5.261260   10.976071
   35.S         5.359987   11.484344    7.379167
   36.S        10.317686   15.559125   12.045945
   37.S         5.782047   15.295945   10.332556
   38.S         9.987546   11.158509   15.510805
   39.S        13.401176   14.165042    9.017499
   40.S        13.957651   13.284690   13.725919
   41.S         9.645751    9.812967    5.031441
   42.S         6.148409    7.043217   11.394432
   43.S         5.507773    7.919359    6.692118
   44.C         8.574864    4.749356    8.135635
   45.C         8.515431    3.669853    7.024646
   46.H         7.593677    5.222884    8.285285
   47.H         8.922449    4.325363    9.089404
   48.N         7.437934    2.710419    7.235588
   49.H         9.487869    3.147898    6.973429
   50.H         8.357224    4.156926    6.046366
   51.C        14.457374    4.906653    9.689795
   52.C        13.914842    4.323238    8.363938
   53.H        15.134308    4.198604   10.196011
   54.H        14.993592    5.843105    9.498022
   55.N        14.949465    4.307442    7.335361
   56.H        13.077621    4.960047    8.025542
   57.H        13.486933    3.320039    8.560306
   58.C        15.488481   10.243749   11.549705
   59.C        16.481760    9.124618   11.224531
   60.H        15.987087   11.100024   12.026539
   61.H        14.958298   10.570000   10.646933
   62.N        17.273649    9.509250   10.005141
   63.H        15.935761    8.186239   11.021885
   64.H        17.195075    8.976086   12.049294
   65.C         6.254765   12.198622    5.799512
   66.C         5.893135   11.374093    4.548402
   67.H         7.335704   12.164600    5.987795
   68.H         5.929948   13.245392    5.698654
   69.N         6.693243   11.749742    3.378083
   70.H         4.821476   11.491135    4.312700
   71.H         6.072788   10.305038    4.749180
   72.C         5.894723   16.661775    8.968802
   73.C         4.554546   16.802874    8.219314
   74.H         6.697626   16.377829    8.274952
   75.H         6.159446   17.594099    9.492131
   76.N         4.589911   17.850372    7.193912
   77.H         3.744589   17.033392    8.931410
   78.H         4.304476   15.841665    7.738379
   79.C         9.663912   15.813512   13.843198
   80.C         8.485797   16.804051   13.888202
   81.H        10.512305   16.187636   14.436528
   82.H         9.359364   14.832959   14.223039
   83.N         7.906658   16.828041   15.251011
   84.H         7.739115   16.495218   13.128851
   85.H         8.842977   17.808049   13.601955
   86.C         5.784253   13.889156   13.750539
   87.C         5.297815   13.663926   15.190204
   88.H         5.322441   14.787169   13.314621
   89.H         6.875506   13.993620   13.722142
   90.N         5.795052   14.763093   16.056829
   91.H         5.651205   12.673525   15.537252
   92.H         4.194663   13.639427   15.200013
   93.C         5.547986    7.814560   15.734814
   94.C         6.054318    6.472256   16.305098
   95.N         5.005235    5.461818   16.403996
   96.H         6.496815    6.636438   17.303015
   97.H         6.858512    6.089553   15.651880
   98.H         5.132720    7.674678   14.729950
   99.H         4.791836    8.274170   16.391942
  100.C        11.354172    6.184452   14.324871
  101.C        11.657323    7.530654   15.015675
  102.H        12.241655    5.822524   13.787334
  103.H        11.034507    5.433069   15.065236
  104.N        12.794327    7.414772   15.911651
  105.H        10.760291    7.867055   15.567358
  106.H        11.853575    8.291952   14.240353
  107.C        10.951106    8.406444    4.990078
  108.C        10.518936    7.241864    4.091563
  109.H        11.089402    8.061910    6.020659
  110.H        11.878889    8.868533    4.624409
  111.N        11.472142    6.111812    4.304610
  112.H        10.568499    7.546331    3.033484
  113.H         9.470960    6.972030    4.327731
  114.C         5.559501    6.076611    6.142054
  115.C         4.563136    5.258313    6.968593
  116.H         6.577640    5.691047    6.258923
  117.H         5.290654    6.085777    5.072733
  118.N         4.667129    3.821066    6.588216
  119.H         3.547225    5.684460    6.843810
  120.H         4.834823    5.338519    8.034337
  121.C         4.350649    7.615423   11.838567
  122.C         3.309622    7.076921   10.837512
  123.H         4.332585    8.713218   11.880863
  124.H         4.164118    7.207201   12.843738
  125.N         1.931151    7.414494   11.196163
  126.H         3.400424    5.979645   10.763108
  127.H         3.527730    7.490214    9.837150
  128.C        14.190334    7.595863    7.146150
  129.C        14.724203    7.733131    5.717852
  130.H        13.142090    7.273695    7.137903
  131.H        14.794107    6.864404    7.695091
  132.N        14.485036    6.429358    5.042747
  133.H        15.808322    7.935340    5.743118
  134.H        14.232903    8.593953    5.218398
  135.C        13.797868   13.398469    4.760147
  136.C        15.117008   12.621682    4.513960
  137.H        13.852591   13.963985    5.698840
  138.H        13.571034   14.085773    3.928803
  139.N        16.279934   13.472208    4.652916
  140.H        15.082237   12.153531    3.512930
  141.H        15.176351   11.798023    5.252481
  142.C        10.289234   16.217681    8.022676
  143.C         9.524090   17.372809    8.693176
  144.H        10.897440   15.674820    8.755754
  145.H        10.934715   16.583189    7.208435
  146.N        10.406932   18.297926    9.414390
  147.H         8.811540   16.954928    9.425572
  148.H         8.945089   17.937169    7.942227
  149.C         8.817180   12.587850   16.038625
  150.C         9.524440   13.584920   16.968798
  151.H         7.979332   12.103075   16.560508
  152.H         8.446707   13.082286   15.133627
  153.N         8.581489   14.673468   17.326410
  154.H        10.440692   13.956513   16.468660
  155.H         9.843412   13.058161   17.883591
  156.C        13.764652   15.143747   14.211800
  157.C        13.558911   15.298998   15.730125
  158.H        14.701575   15.621578   13.882728
  159.H        12.917789   15.553854   13.641342
  160.N        14.632388   14.811221   16.592564
  161.H        12.629365   14.778988   16.018282
  162.H        13.407765   16.377242   15.933736
  163.C        15.063502   13.416396    8.385665
  164.C        16.058705   14.551414    8.120129
  165.H        14.840983   12.859756    7.465929
  166.H        15.453035   12.724508    9.141750
  167.N        17.247356   13.984937    7.420213
  168.H        16.301291   15.044070    9.083804
  169.H        15.597914   15.302072    7.455706
  170.H         4.715300    4.975925   15.556928
  171.H         4.309460    5.546145   17.143667
  172.H         6.639395   14.523171   16.618574
  173.H         5.063419   15.205348   16.623948
  174.H        13.722425    7.665420   15.582594
  175.H        12.653016    7.299154   16.910466
  176.H         8.598743   15.484716   16.672960
  177.H         8.644168   14.964039   18.308918
  178.H        14.721208   13.796328   16.675108
  179.H        15.523482   15.309990   16.542267
  180.H        17.961990   14.707092    7.245715
  181.H        17.659482   13.204129    7.957304
  182.H        16.650246    9.673474    9.191215
  183.H        17.985996    8.795282    9.773451
  184.H        14.835269    4.916823    6.506940
  185.H        15.520815    3.469591    7.237321
  186.H         7.547724    2.060312    8.016677
  187.H         6.475873    3.041794    7.029021
  188.H        11.476927    5.444260    3.520940
  189.H        11.269781    5.627591    5.191906
  190.H         4.464299    3.658708    5.591682
  191.H         4.073595    3.217336    7.174418
  192.H         1.649516    8.391142   11.093859
  193.H         1.515044    6.923338   11.988976
  194.H         6.552826   12.694507    3.011813
  195.H         7.668042   11.437837    3.387301
  196.H         4.588377   18.819827    7.516284
  197.H         5.165685   17.671839    6.368771
  198.H         7.050323   16.243148   15.360225
  199.H         7.795137   17.769912   15.641177
  200.H        11.053445   18.844991    8.838310
  201.H        10.825302   17.913990   10.267586
  202.H        16.622726   13.993372    3.849311
  203.H        16.688633   13.626861    5.599149
  204.H        15.153956    6.243471    4.284222
  205.H        13.497770    6.339853    4.717080
  206.O        18.073016   11.790426    9.291361
  207.C        18.248052   11.061063   10.282272
  208.O        18.815562   10.963894   11.375977
 <Feb04-2021> <20:27:19>  >>>> CORORT
 <Feb04-2021> <20:27:32>  >>>> CLSMAT
 <Feb04-2021> <20:27:39>  >>>> ORTHON
 <Feb04-2021> <20:27:55>  >>>> GENPT
 <Feb04-2021> <20:28:15>  Block Length= 128
 <Feb04-2021> <20:29:15>  >>>> PTBAS
 <Feb04-2021> <20:37:17>  >>>> CYCLE
 <Feb04-2021> <20:44:47>              |Error|         MaxErr       Wt(A-DIIS)
 <Feb04-2021> <20:44:47>      1      8.13447246      0.40844422
 <Feb04-2021> <20:51:09>      2      4.75439637      0.36865897    100.0
 <Feb04-2021> <20:57:35>      3     13.62366735      0.69511106    100.0
 <Feb04-2021> <21:04:06>      4      4.27301299      0.38752894    100.0
 <Feb04-2021> <21:10:28>      5      7.04321980      0.42192744    100.0
 <Feb04-2021> <21:16:52>      6      1.72974769      0.19727940    100.0
 <Feb04-2021> <21:23:31>      7     20.25317102      1.35966355    100.0
 <Feb04-2021> <21:30:04>      8      6.91709348      0.53354065    100.0
 <Feb04-2021> <21:36:31>      9      4.11346842      0.40967410    100.0
 <Feb04-2021> <21:42:58>     10      2.01001433      0.22550588    100.0
 <Feb04-2021> <21:49:23>     11      2.58407513      0.42312743    100.0
 <Feb04-2021> <21:55:50>     12      1.97376548      0.40303033    100.0
 <Feb04-2021> <22:02:16>     13      0.81385569      0.17101121    100.0
 <Feb04-2021> <22:08:42>     14      0.93797275      0.18666644    100.0
 <Feb04-2021> <22:15:08>     15      0.80899463      0.18307340    100.0
 <Feb04-2021> <22:21:33>     16      0.53046705      0.03401328     33.3
 <Feb04-2021> <22:27:57>     17      0.35959495      0.03420047     33.3
 <Feb04-2021> <22:34:22>     18      0.55104807      0.13857867    100.0
 <Feb04-2021> <22:40:47>     19      0.34042212      0.06045549     60.1
 <Feb04-2021> <22:47:13>     20      0.13521007      0.01562397     14.8
 <Feb04-2021> <22:53:40>     21      0.08258645      0.00810634      7.2
 <Feb04-2021> <23:00:05>     22      0.06460241      0.01357145      7.2
 <Feb04-2021> <23:06:31>     23      0.02434565      0.00246248      1.5
 <Feb04-2021> <23:12:57>     24      0.01366249      0.00207267      1.1
 <Feb04-2021> <23:19:22>     25      0.01972142      0.00493547    100.0
 <Feb04-2021> <23:25:46>     26      0.07002342      0.01510613    100.0
 <Feb04-2021> <23:32:11>     27      0.03349473      0.00512197    100.0
 <Feb04-2021> <23:38:36>     28      0.01398689      0.00292321      1.9
 <Feb04-2021> <23:45:02>     29      0.00277248      0.00056265      0.0
 <Feb04-2021> <23:51:27>     30      0.00178569      0.00035526      0.0
 <Feb04-2021> <23:57:52>     31      0.00073188      0.00011832      0.0
 <Feb05-2021> <00:04:17>     32      0.00019375      0.00001620      0.0
 <Feb05-2021> <00:10:50>     33      0.00037077      0.00009337      0.0
 <Feb05-2021> <00:17:25>     34      0.00019853      0.00004311      0.0
 <Feb05-2021> <00:24:01>     35      0.00011463      0.00002352      0.0
 <Feb05-2021> <00:30:39>     36      0.00008105      0.00001877      0.0
 <Feb05-2021> <00:37:17>     37      0.00003329      0.00000236      0.0
 <Feb05-2021> <00:43:56>     38      0.00001423      0.00000142      0.0
 <Feb05-2021> <00:50:34>     39      0.00000262      0.00000019      0.0
 <Feb05-2021> <00:52:08>  SCF converged
 <Feb05-2021> <00:57:12>     40      0.00000437      0.00000048      0.0
 <Feb05-2021> <00:57:23>  WARNING: partially occupied orbitals
 <Feb05-2021> <00:57:23>   Solutions with partially occupied orbitals may not be
 <Feb05-2021> <00:57:23>   lowest in energy. You might consider lowering the
 <Feb05-2021> <00:57:23>   symmetry in the input and explicitly specifying integer
 <Feb05-2021> <00:57:23>   occupations. In that case always check that you obtain
 <Feb05-2021> <00:57:23>   an aufbau solution.
 <Feb05-2021> <01:02:04>  >>>> TOTEN
 <Feb05-2021> <01:55:21>  >>>> POPAN
 <Feb05-2021> <01:55:23>  >>>> DEBYE
 <Feb05-2021> <01:55:34>  >>>> AMETS
 <Feb05-2021> <01:55:50>   Bond Energy         -36.87159480 a.u.
 <Feb05-2021> <01:55:50>   Bond Energy       -1003.32714411 eV
 <Feb05-2021> <01:55:50>   Bond Energy      -23137.28       kcal/mol
 <Feb05-2021> <01:55:50>  >>>> POPUL
 <Feb05-2021> <01:56:09>  NORMAL TERMINATION with warnings
 <Feb05-2021> <01:56:10>  END
