
 *******************************************************************************
 *                                                                             *
 *  -------------------------------------                                      *
 *   Amsterdam Density Functional  (ADF)         2019                          *
 *  -------------------------------------                                      *
 *                                               r74351 2019-04-25             *
 *                                                                             *
 *                                                                             *
 *                            =====================                            *
 *                            |                   |                            *
 *                            |     D I R A C     |                            *
 *                            |                   |                            *
 *                            =====================                            *
 *                                                                             *
 *                                                                             *
 *   Online information and documentation:  https://www.scm.com/support/       *
 *   E-mail:  support@scm.com   info@scm.com                                   *
 *                                                                             *
 *   Scientific publications using ADF results must be properly referenced     *
 *   See the User Manuals (or the web site) for recommended citations          *
 *   The terms and conditions of the End User License Agreement apply to       *
 *   the use of ADF, https://www.scm.com/license-terms/                        *
 *                                                                             *
 **********************  x86_64_linux_intel / intelmpi  ************************
 
 Licensed to: Dr. Emilie Guidez / UC Denver / Denver / CO / USA
 SCM User ID: u20218
  
 DIRAC 2019  RunTime: Feb04-2021 20:25:52  Nodes: 1  Procs: 1

 Temporary files are created in /home/chemistry/limjae/scr/kid_0.399656811

1
 HYDROGEN ATOM RELATIVISTIC, Point Nuc, A and c from libtc   
 N J RN H ZN XION ANUC CLIGHT
 5000    1100.00000000197.36710137  1.00000000  0.00000000    1.007825  0.1370360E+03
  PH   PHI     EPS        DEL        DELRVR
  0.30  0.30     2500.00  0.00001000  0.00001000
 IDIRC  NC1  NDEBU NPRIN  IPUN IRCOR IWCOR
   1   300     0     0     0     0     0
   XALPHA      XLATTER      RNUC
  0.70000000  0.00000000  0.00000000 Point Charge
   XN   XL   XJ      XE          XZ      XDELL
  1.0  0.0  0.5      -1.000       1.000     0.00000
 ICORP=  0  NPCL=  0  DEMP=0.00  PEPS=0.000000
 R(1)=  0.1000000E-08 D=  0.1005080E+01 RNUC=  0.0000000E+00
 converged at cycle   32  DENSITY AVERAGING    0.2400
  MAXIMUM ERROR IN R.V(R) IS   0.79874357E-05
 Q,EY,EV,EZ,ESUM,ETOT,RHO  0.100000E+01 -0.266614E+00 -0.619969E+00 -0.910779E+00 -0.203940E+00 -0.415998E+00  0.337036E-17


 DIRAC CALCULATION
1                    HYDROGEN ATOM RELATIVISTIC, Point Nuc, A and c from libtc


 EXCHANGE COEFFICIENT=  0.7000000           TAIL CORRECTION=  0.           NUCLEAR RADIUS=  0.000E+00
0                       ORBITAL    N    L    J     ELECTRONS     EIGENVALUE                DELTA OF EIGENV.

                          1S1/2  1.0  0.0  0.5     1.000       -0.2039397E+00                 0.2720093E-06


                                        NUCLEAR CHARGE=    1.000000
                            INTEGRAL OF CHARGE DENSITY=    1.000000
                           SUM OF THE ORBITAL ENERGIES=     -0.2039
                                          TOTAL ENERGY=     -0.4160
                                        KINETIC ENERGY=      0.4160
                             NUCLEAR ATTRACTION ENERGY=     -0.9108
                             ELECTRON REPULSION ENERGY=      0.2787
                                       EXCHANGE ENERGY=     -0.2000

 *******************************************************************************

                             D I R A C   E X I T
 NORMAL TERMINATION



 =================
 Timing Statistics
 =================
  
 Total Used :                     CPU=        0.07      System=        0.01     Elapsed=        0.14

 Calls  Section                     ( Mean, Percentage )
 ---------------------------------------------------------------------------------------------------
     2  ><      ................      0.00    0.01             0.00    0.15             0.00    0.02
     1  EXIT PROCEDURE .........      0.07   99.99             0.01   99.85             0.14   99.98


 Currently Open Files (EXIT00)
 ====================

 Unit    Access Format  Status   Type       Ident (file)
 -------------------------------------------------------
   3      SEQ    FORM   TRANSP  NORMAL      LOGFILE
                                          ( logfile )
 
Create H   file=DZ-H
XC
 GGA PBE
End
relativistic ZORA
Corepotentials t12.rel
End

 *******************************************************************************
 *                                                                             *
 *  -------------------------------------                                      *
 *   Amsterdam Density Functional  (ADF)         2019                          *
 *  -------------------------------------                                      *
 *                                               r74351 2019-04-25             *
 *                                                                             *
 *                                                                             *
 *                              =================                              *
 *                              |               |                              *
 *                              |     A D F     |                              *
 *                              |               |                              *
 *                              =================                              *
 *                                                                             *
 *                                                                             *
 *   Online information and documentation:  https://www.scm.com/support/       *
 *   E-mail:  support@scm.com   info@scm.com                                   *
 *                                                                             *
 *   Scientific publications using ADF results must be properly referenced     *
 *   See the User Manuals (or the web site) for recommended citations          *
 *   The terms and conditions of the End User License Agreement apply to       *
 *   the use of ADF, https://www.scm.com/license-terms/                        *
 *                                                                             *
 **********************  x86_64_linux_intel / intelmpi  ************************
 
 Licensed to: Dr. Emilie Guidez / UC Denver / Denver / CO / USA
 SCM User ID: u20218
  
 ADF 2019  RunTime: Feb04-2021 20:25:52  Nodes: 1  Procs: 1

 Temporary files are created in /home/chemistry/limjae/scr/kid_0.57969409

 Hydrogen (DZ)



 ===========================
 A T T A C H E D   F I L E S
 ===========================
  
 CREATE - Data File:    DZ-H
                        Hydrogen (DZ)
 Core Potentials:
         file : t12.rel



 ===============================
 M O D E L   P A R A M E T E R S
 ===============================
  
 DENSITY FUNCTIONAL POTENTIAL (scf)
    LDA:                               PW92                                    == Not Default ==
    Gradient Corrections:              PBEc PBEx                               == Not Default ==

 SPIN  (restricted / unrestr.)
    Molecule:                          Restricted                               

 OTHER ASPECTS
    Relativistic Corrections:          scalar (ZORA,MAPA)                      == Not Default ==

    Nuclear Charge Density Model:      Point Charge Nuclei                      
    Core Treatment:                    Frozen Orbital(s)                        

    Hyperfine or Zeeman Interaction:   ---                                      



 =====================================
 S Y M M E T R Y ,   E L E C T R O N S
 =====================================
  
 Symmetry: ATOM

 Irreducible Representations, including subspecies
 -------------------------------------------------
 S
 P:x  P:y  P:z
 D:z2  D:x2-y2  D:xy  D:xz  D:yz
 F:z3  F:z  F:xyz  F:z2x  F:z2y  F:x  F:y


 Configuration of Valence Electrons
 ==================================

          Occupation Numbers
          -------------------------------------------------
 S        1
 P        0
 D        0
 F        0
          -------------------------------------------------

 Total:   1

 Net Charge: 0 (Nuclei minus Electrons)

 Preset values for MO occupations will be applied through SCF cycle no. 1000000
 Thereafter, the program will assign electrons to MOs that are spatially
 similar to the occupied MOs in a "reference" cycle ("KeepOrbitals").
 The reference cycle is always the PREVIOUS cycle: it will evolve with
 the SCF procedure.



 ================================
 (Slater-type)  F U N C T I O N S  ***  (Basis and Fit)  ***
 ================================
  

 Atom Type    1  (H)
 ==============

 Valence Basis Sets:   2
 -----------------------
   1 S    0.760000
   1 S    1.280000


 BAS: List of all Elementary Cartesian Basis Functions
 =====================================================

 The numbering in the list below (to the right of the function characteristics) is referred
 to in print-outs of MO eigenvectors and Mulliken populations in the BAS representation
 (as contrasted to the SFO representation).

 Notes:
 1. The functions are characterized by a polynomial prefactor (powers of x,y,z and r) and
    an exponential decay factor alpha.
 2. Since the basis sets are specific for an atom TYPE, the individual functions occur on
    all atoms of that type.
 3. The word 'Core' in the left margin signals that it is a Core Function (CF) : not a
    degree of freedom in the valence set, but only used to ensure orthogonalization of
    the other valence basis functions on the frozen Core Orbitals.


 (power of) X  Y  Z  R     Alpha  on Atom
            ==========     =====     ==========

 H                                    1
                                  ---------------------------------------------------------------------------
            0  0  0  0     0.760      1
            0  0  0  0     1.280      2

 Total number of charge fitting functions (nprimf)        50
 Total number of Cartesian basis functions (naos)          2
 Total number of Cartesian core functions  (ncos)          0



 BAS: List of all Elementary Cartesian Basis Functions
 =====================================================

 The numbering in the list below (to the right of the function characteristics) is referred
 to in print-outs of MO eigenvectors and Mulliken populations in the BAS representation
 (as contrasted to the SFO representation).

 Notes:
 1. The functions are characterized by a polynomial prefactor (powers of x,y,z and r) and
    an exponential decay factor alpha.
 2. Since the basis sets are specific for an atom TYPE, the individual functions occur on
    all atoms of that type.
 3. The word 'Core' in the left margin signals that it is a Core Function (CF) : not a
    degree of freedom in the valence set, but only used to ensure orthogonalization of
    the other valence basis functions on the frozen Core Orbitals.


 (power of) X  Y  Z  R     Alpha  on Atom
            ==========     =====     ==========

 H                                    1
                                  ---------------------------------------------------------------------------
            0  0  0  0     0.760      1
            0  0  0  0     1.280      2
1
 ***************************************************************************************************



                                              ***********************
                                              *  T E C H N I C A L  *
                                              ***********************
  



 =============================================================
 P A R A L L E L I Z A T I O N  and  V E C T O R I Z A T I O N
 =============================================================
  
 Nr of parallel processes:                                1
 Maximum vector length in NumInt loops:                 128



 =====================
 S C F   U P D A T E S
 =====================
  
 Max. nr. of cycles:                               300
 Convergence criterion:                              0.0000000100
   secondary criterion:                              0.0000000100

 Mix parameter (when DIIS does not apply):           0.2000000000
 Special mix parameter for the first cycle:          1.0000000000
 Mixed ADIIS+SDIIS will be used                  
    Max number of expansion vectors:                10
    Pure ADIIS when Max([F,P]) is above              0.1000000000
    Pure SDIIS when Max([F,P]) is below              0.0010000000
 Automatic ElectronSmearing (in case of problematic SCF convergence) disabled



 =================
 P R E C I S I O N  ***  (General: NumInt, NeglectFunctionTails, ...)  ***
 =================
  

 NumInt:           Target precision:                12.0000000000
 -------           Initial precision:               10.0000000000
                   Min. precision (optimization):   10.0000000000

 Neglect Functions:          Basis functions:        0.1000000000E-13
 ------------------          Fit functions:          0.1000000000E-13



 ===========================
 L I N E A R   S C A L I N G
 ===========================
  

 Cut-off radii density fit:                        0.1000000000E-97
 Overlap cut-off criterion AO matrix elements:     0.1000000000E-97
 Cut-offs for Coulomb potential and fitted density:0.1000000000E-97
 Cut-off criterion for Coulomb multipole terms:    0.1000000000E-97
 Progressive Convergence parameter:                 0.000000000    
1
 ***************************************************************************************************



                                            ***************************
                                            *  C O M P U T A T I O N  *
                                            ***************************
  

 Number of elements of the density matrix on this node (used, total):         3         3



 ===========================================
 Numerical Integration : Fuzzy Cells (Becke)
 ===========================================
  
 Becke grid quality: VERYGOOD       
  
 Lebedev angular grid order:             min:  13 max:  41
 Nr. of radial points:                   min:  64 max:  64

 Total nr. of points:         64
 Nr. of blocks:                1
 Block length:                64
 Nr. of dummy points:          0


 Test of Precision of the Numerical Integration Grid
 ===================================================

 Integral of the Total Core Density:                   0.00000000000000



 ========================
 Density Fitting (zlmFit)
 ========================
  
 ZlmFit Fit Quality: VERYGOOD       
  
 Max L-expansion:                        min:   0 max:   0
 Nr. of radial interpolation points:     min: 120 max: 120



 =====
 S C F  ***  ScaSCF  ***
 =====
  

 CYCLE    1
 SCF Error: norm([F,P])=      0.000000000000, max([F,P])=      0.000000000000
 orbitals (Q,E):
 ---------------
 S :1...2            ( 1.00    -0.4983)  ( 0.00     0.1718)

 CYCLE    2
 SCF Error: norm([F,P])=      0.033001933656, max([F,P])=      0.033001933656
 orbitals (Q,E):
 ---------------
 S :1...2            ( 1.00    -0.2268)  ( 0.00     0.4005)

 CYCLE    3
  SDIIS (wt  0.000):  0.1528  0.8472
 A-DIIS (wt  1.000):  0.0000  1.0000
  DIIS coefficients:  0.0000  1.0000
 SCF Error: norm([F,P])=      0.005954454000, max([F,P])=      0.005954454000
 orbitals (Q,E):
 ---------------
 S :1...2            ( 1.00    -0.2417)  ( 0.00     0.3884)

 CYCLE    4
  SDIIS (wt  1.000):  0.1463  0.8537
 A-DIIS (wt  0.000):  0.0000  1.0000
  DIIS coefficients:  0.1463  0.8537
 SCF Error: norm([F,P])=      0.001020399433, max([F,P])=      0.001020399433
 orbitals (Q,E):
 ---------------
 S :1...2            ( 1.00    -0.2394)  ( 0.00     0.3902)

 CYCLE    5
  SDIIS (wt  1.000):  0.0014  0.9986
  DIIS coefficients:  0.0014  0.9986
 SCF Error: norm([F,P])=      0.000001436995, max([F,P])=      0.000001436995
 orbitals (Q,E):
 ---------------
 S :1...2            ( 1.00    -0.2394)  ( 0.00     0.3902)

 CYCLE    6
  SDIIS (wt  1.000): -0.0002  1.0002
  DIIS coefficients: -0.0002  1.0002
 SCF Error: norm([F,P])=      0.000000000334, max([F,P])=      0.000000000334
 orbitals (Q,E):
 ---------------
 S :1...2            ( 1.00    -0.2394)  ( 0.00     0.3902)

 SCF CONVERGED

 CYCLE    7
1
 ***************************************************************************************************



                                                *******************
                                                *  R E S U L T S  *
                                                *******************
  
 *** Using FIT density in Focky
  SDIIS (wt  1.000):  0.0000  1.0000
  DIIS coefficients:  0.0000  1.0000
 SCF Error: norm([F,P])=      0.000000000000, max([F,P])=      0.000000000000

 Scaled ZORA Orbital Energies, per Irrep and Spin:
 =================================================
                        Occup              E (au)              E (eV)       Diff (eV) with prev. cycle
                        -----      --------------------        ------       --------------------------
 S
               1        1.000     -0.23939248892723E+00        -6.514               9.37E-14
               2        0.000      0.39021645958604E+00        10.618


 Partially Occupied:
               1 S                -0.23939248892723E+00
  
 LUMO :        2 S                 0.39021645958604E+00
  


 All Electron Calculation, thus no Orbital Energies of the Core Orbitals are calculated



 =======================================
 M U L L I K E N   P O P U L A T I O N S
 =======================================
  
 The survey below gives for each atom:
 a) the total charge (Z minus electrons)
 b) the net spin polarization (nr of electrons spin-A minus spin-B)
 c) for each spin the atomic electron valence density (integrated) per L-value.

 Atom              Charge    Spin density          S         P         D         F
 ----              ------    ------------       ------    ------    ------    ------
 1 H              -0.0000                       1.0000    0.0000    0.0000    0.0000

 Populations of individual BAS functions
 ----------------------------------------
 1 H            0.6465  0.3535

 Gross Charges per Atom (Z minus electrons)
 ==========================================
            -0.0000
 Net Total: -0.00000000



 =======================================================================
 Electrostatic potential at the Nuclei due to electrons and other nuclei
 =======================================================================
  
         Atom                  Potential
         ----                  ---------
     1)   H                   0.94379605
 
 
 ========================
 No memory problems found
 ========================
 
 Maximum number of active allocate calls:         264
 
 *******************************************************************************

                             A D F   E X I T
 NORMAL TERMINATION



 =================
 Timing Statistics
 =================
  
 Total Used :                     CPU=        0.49      System=        0.08     Elapsed=        0.84

 Calls  Section                     ( Mean, Percentage )
 ---------------------------------------------------------------------------------------------------
     3  ><      ................      0.00    1.24             0.00    0.81             0.00    1.19
     1  INIT    ................      0.10   20.43             0.03   39.89             0.17   20.29
     1  GEOMET  ................      0.03    6.18             0.01    7.54             0.07    8.01
     1  INPUTA  ................      0.01    1.99             0.00    4.64             0.03    3.24
     1  MAINSY  ................      0.02    3.26             0.00    5.65             0.04    4.65
     1  SYMFIT  ................      0.00    0.48             0.00    0.34             0.00    0.37
     1  CORORT  ................      0.00    0.33             0.00    0.05             0.00    0.43
     1  SYMORB  ................      0.00    0.19             0.00    0.31             0.00    0.25
     1  CLSMAT  ................      0.01    1.04             0.00    2.81             0.01    1.45
     1  ORTHON  ................      0.01    1.55             0.00    1.07             0.01    1.31
     1  GENPT   ................      0.02    4.14             0.00    1.77             0.03    3.83
     1  PTBAS   ................      0.01    1.35             0.00    3.44             0.02    1.94
     7  FOCKY   ................      0.03   41.22             0.00   12.76             0.04   30.23
     7  FOCKTR  ................      0.00    0.90             0.00    2.04             0.00    1.63
     7  SDIIS   ................      0.00    4.75             0.00    8.34             0.01    7.91
     1  COREPS  ................      0.02    4.12             0.00    2.61             0.03    3.69
     1  POPAN   ................      0.00    0.81             0.00    1.96             0.01    1.22
     1  DEBYE   ................      0.00    0.33             0.00    1.86             0.01    0.67
     1  EXIT PROCEDURE .........      0.03    5.70             0.00    2.11             0.06    7.71


 Currently Open Files (EXIT00)
 ====================

 Unit    Access Format  Status   Type       Ident (file)
 -------------------------------------------------------
   3      SEQ    FORM   TRANSP  NORMAL      LOGFILE
                                          ( logfile )

 ***************************************************************************************************
 (LOGFILE)
 <Feb04-2021> <20:25:52>  DIRAC 2019  RunTime: Feb04-2021 20:25:52  Nodes: 1  Procs: 1
 <Feb04-2021> <20:25:52>  NORMAL TERMINATION
 <Feb04-2021> <20:25:52>  END
 <Feb04-2021> <20:25:52>  ADF 2019  RunTime: Feb04-2021 20:25:52  Nodes: 1  Procs: 1
 <Feb04-2021> <20:25:52>  Hydrogen (DZ)
 <Feb04-2021> <20:25:52>  RunType   : CREATE
 <Feb04-2021> <20:25:52>  Net Charge: 0 (Nuclei minus Electrons)
 <Feb04-2021> <20:25:52>  Symmetry  : ATOM
  Coordinates
    Atom         X           Y           Z   (Angstrom)
    1.H         0.000000    0.000000    0.000000
 <Feb04-2021> <20:25:52>  >>>> CORORT
 <Feb04-2021> <20:25:52>  >>>> CLSMAT
 <Feb04-2021> <20:25:52>  >>>> ORTHON
 <Feb04-2021> <20:25:52>  >>>> GENPT
 <Feb04-2021> <20:25:53>  Block Length=  64
 <Feb04-2021> <20:25:53>  >>>> PTBAS
 <Feb04-2021> <20:25:53>  >>>> CYCLE
 <Feb04-2021> <20:25:53>              |Error|         MaxErr       Wt(A-DIIS)
 <Feb04-2021> <20:25:53>      1      0.00000000      0.00000000
 <Feb04-2021> <20:25:53>      2      0.03300193      0.03300193
 <Feb04-2021> <20:25:53>      3      0.00595445      0.00595445    100.0
 <Feb04-2021> <20:25:53>      4      0.00102040      0.00102040      0.0
 <Feb04-2021> <20:25:53>      5      0.00000144      0.00000144      0.0
 <Feb04-2021> <20:25:53>      6      0.00000000      0.00000000      0.0
 <Feb04-2021> <20:25:53>  SCF converged
 <Feb04-2021> <20:25:53>      7      0.00000000      0.00000000      0.0
 <Feb04-2021> <20:25:53>  >>>> POPAN
 <Feb04-2021> <20:25:53>  >>>> DEBYE
 <Feb04-2021> <20:25:53>  NORMAL TERMINATION
 <Feb04-2021> <20:25:53>  END

 *******************************************************************************
 *                                                                             *
 *  -------------------------------------                                      *
 *   Amsterdam Density Functional  (ADF)         2019                          *
 *  -------------------------------------                                      *
 *                                               r74351 2019-04-25             *
 *                                                                             *
 *                                                                             *
 *                            =====================                            *
 *                            |                   |                            *
 *                            |     D I R A C     |                            *
 *                            |                   |                            *
 *                            =====================                            *
 *                                                                             *
 *                                                                             *
 *   Online information and documentation:  https://www.scm.com/support/       *
 *   E-mail:  support@scm.com   info@scm.com                                   *
 *                                                                             *
 *   Scientific publications using ADF results must be properly referenced     *
 *   See the User Manuals (or the web site) for recommended citations          *
 *   The terms and conditions of the End User License Agreement apply to       *
 *   the use of ADF, https://www.scm.com/license-terms/                        *
 *                                                                             *
 **********************  x86_64_linux_intel / intelmpi  ************************
 
 Licensed to: Dr. Emilie Guidez / UC Denver / Denver / CO / USA
 SCM User ID: u20218
  
 DIRAC 2019  RunTime: Feb04-2021 20:25:53  Nodes: 1  Procs: 1

 Temporary files are created in /home/chemistry/limjae/scr/kid_0.2073514747

1
 NITROGEN ATOM 1s CORE RELATIVISTIC, Point Nuc, A and c from 
 N J RN H ZN XION ANUC CLIGHT
 5000    4100.00000000197.36710137  7.00000000  0.00000000   14.003074  0.1370360E+03
  PH   PHI     EPS        DEL        DELRVR
  0.30  0.30     2500.00  0.00001000  0.00001000
 IDIRC  NC1  NDEBU NPRIN  IPUN IRCOR IWCOR
   1   300     0     0     0     0     1
   XALPHA      XLATTER      RNUC
  0.70000000  0.00000000  0.00000000 Point Charge
   XN   XL   XJ      XE          XZ      XDELL
  1.0  0.0  0.5      -5.000       2.000     0.00000
  2.0  0.0  0.5      -1.000       2.000     0.00000
  2.0  1.0  0.5      -1.000       2.000     0.00000
  2.0  1.0  1.5      -1.000       1.000     0.00000
 ICORP=  0  NPCL=  0  DEMP=0.00  PEPS=0.000000
 R(1)=  0.1000000E-08 D=  0.1005080E+01 RNUC=  0.0000000E+00
 converged at cycle   25  DENSITY AVERAGING    0.3000
  MAXIMUM ERROR IN R.V(R) IS   0.97905511E-05
 Q,EY,EV,EZ,ESUM,ETOT,RHO  0.700000E+01 -0.796419E+01 -0.840156E+02 -0.127663E+03 -0.300692E+02 -0.538837E+02  0.270066E-14


 DIRAC CALCULATION
1                    NITROGEN ATOM 1s CORE RELATIVISTIC, Point Nuc, A and c from libtc


 EXCHANGE COEFFICIENT=  0.7000000           TAIL CORRECTION=  0.           NUCLEAR RADIUS=  0.000E+00
0                       ORBITAL    N    L    J     ELECTRONS     EIGENVALUE                DELTA OF EIGENV.

                          1S1/2  1.0  0.0  0.5     2.000       -0.1403720E+02                 0.4993583E-04
                          2S1/2  2.0  0.0  0.5     2.000       -0.6456810E+00                 0.6544571E-05
                          2P1/2  2.0  1.0  0.5     2.000       -0.2347008E+00                 0.5687228E-05
                          2P3/2  2.0  1.0  1.5     1.000       -0.2339893E+00                 0.5679256E-05


                                        NUCLEAR CHARGE=    7.000000
                            INTEGRAL OF CHARGE DENSITY=    7.000000
                           SUM OF THE ORBITAL ENERGIES=    -30.0692
                                          TOTAL ENERGY=    -53.8837
                                        KINETIC ENERGY=     53.9465
                             NUCLEAR ATTRACTION ENERGY=   -127.6627
                             ELECTRON REPULSION ENERGY=     25.8056
                                       EXCHANGE ENERGY=     -5.9731

 *******************************************************************************

                             D I R A C   E X I T
 NORMAL TERMINATION



 =================
 Timing Statistics
 =================
  
 Total Used :                     CPU=        0.09      System=        0.01     Elapsed=        0.17

 Calls  Section                     ( Mean, Percentage )
 ---------------------------------------------------------------------------------------------------
     2  ><      ................      0.00    0.01             0.00    0.07             0.00    0.01
     1  EXIT PROCEDURE .........      0.09   99.99             0.01   99.93             0.17   99.99


 Currently Open Files (EXIT00)
 ====================

 Unit    Access Format  Status   Type       Ident (file)
 -------------------------------------------------------
   3      SEQ    FORM   TRANSP  NORMAL      LOGFILE
                                          ( logfile )
 
Create N   file=DZ-N.1s
XC
 GGA PBE
End
relativistic ZORA
Corepotentials t12.rel
End

 *******************************************************************************
 *                                                                             *
 *  -------------------------------------                                      *
 *   Amsterdam Density Functional  (ADF)         2019                          *
 *  -------------------------------------                                      *
 *                                               r74351 2019-04-25             *
 *                                                                             *
 *                                                                             *
 *                              =================                              *
 *                              |               |                              *
 *                              |     A D F     |                              *
 *                              |               |                              *
 *                              =================                              *
 *                                                                             *
 *                                                                             *
 *   Online information and documentation:  https://www.scm.com/support/       *
 *   E-mail:  support@scm.com   info@scm.com                                   *
 *                                                                             *
 *   Scientific publications using ADF results must be properly referenced     *
 *   See the User Manuals (or the web site) for recommended citations          *
 *   The terms and conditions of the End User License Agreement apply to       *
 *   the use of ADF, https://www.scm.com/license-terms/                        *
 *                                                                             *
 **********************  x86_64_linux_intel / intelmpi  ************************
 
 Licensed to: Dr. Emilie Guidez / UC Denver / Denver / CO / USA
 SCM User ID: u20218
  
 ADF 2019  RunTime: Feb04-2021 20:25:54  Nodes: 1  Procs: 1

 Temporary files are created in /home/chemistry/limjae/scr/kid_0.1210412599

 Nitrogen (DZ, 1s frozen)



 ===========================
 A T T A C H E D   F I L E S
 ===========================
  
 CREATE - Data File:    DZ-N.1s
                        Nitrogen (DZ, 1s frozen)
 Core Potentials:
         file : t12.rel



 ===============================
 M O D E L   P A R A M E T E R S
 ===============================
  
 DENSITY FUNCTIONAL POTENTIAL (scf)
    LDA:                               PW92                                    == Not Default ==
    Gradient Corrections:              PBEc PBEx                               == Not Default ==

 SPIN  (restricted / unrestr.)
    Molecule:                          Restricted                               

 OTHER ASPECTS
    Relativistic Corrections:          scalar (ZORA,MAPA)                      == Not Default ==

    Nuclear Charge Density Model:      Point Charge Nuclei                      
    Core Treatment:                    Frozen Orbital(s)                        

    Hyperfine or Zeeman Interaction:   ---                                      



 =====================================
 S Y M M E T R Y ,   E L E C T R O N S
 =====================================
  
 Symmetry: ATOM

 Irreducible Representations, including subspecies
 -------------------------------------------------
 S
 P:x  P:y  P:z
 D:z2  D:x2-y2  D:xy  D:xz  D:yz
 F:z3  F:z  F:xyz  F:z2x  F:z2y  F:x  F:y


 Configuration of Valence Electrons
 ==================================

          Occupation Numbers
          -------------------------------------------------
 S        2
 P        3
 D        0
 F        0
          -------------------------------------------------

 Total:   5

 Net Charge: 0 (Nuclei minus Electrons)

 Preset values for MO occupations will be applied through SCF cycle no. 1000000
 Thereafter, the program will assign electrons to MOs that are spatially
 similar to the occupied MOs in a "reference" cycle ("KeepOrbitals").
 The reference cycle is always the PREVIOUS cycle: it will evolve with
 the SCF procedure.



 ================================
 (Slater-type)  F U N C T I O N S  ***  (Basis and Fit)  ***
 ================================
  

 Atom Type    1  (N)
 ==============

 Valence Basis Sets:   5
 -----------------------
   1 S    6.380000
   2 S    1.460000
   2 S    2.380000
   2 P    1.120000
   2 P    2.580000

 Frozen Core Shells
 ------------------
    S:  1


 BAS: List of all Elementary Cartesian Basis Functions
 =====================================================

 The numbering in the list below (to the right of the function characteristics) is referred
 to in print-outs of MO eigenvectors and Mulliken populations in the BAS representation
 (as contrasted to the SFO representation).

 Notes:
 1. The functions are characterized by a polynomial prefactor (powers of x,y,z and r) and
    an exponential decay factor alpha.
 2. Since the basis sets are specific for an atom TYPE, the individual functions occur on
    all atoms of that type.
 3. The word 'Core' in the left margin signals that it is a Core Function (CF) : not a
    degree of freedom in the valence set, but only used to ensure orthogonalization of
    the other valence basis functions on the frozen Core Orbitals.


 (power of) X  Y  Z  R     Alpha  on Atom
            ==========     =====     ==========

 N                                    1
                                  ---------------------------------------------------------------------------
    Core    0  0  0  0     6.380      1
            0  0  0  1     1.460      2
            0  0  0  1     2.380      3
            1  0  0  0     1.120      4
            0  1  0  0     1.120      5
            0  0  1  0     1.120      6
            1  0  0  0     2.580      7
            0  1  0  0     2.580      8
            0  0  1  0     2.580      9

 Total number of charge fitting functions (nprimf)        82
 Total number of Cartesian basis functions (naos)          9
 Total number of Cartesian core functions  (ncos)          1



 BAS: List of all Elementary Cartesian Basis Functions
 =====================================================

 The numbering in the list below (to the right of the function characteristics) is referred
 to in print-outs of MO eigenvectors and Mulliken populations in the BAS representation
 (as contrasted to the SFO representation).

 Notes:
 1. The functions are characterized by a polynomial prefactor (powers of x,y,z and r) and
    an exponential decay factor alpha.
 2. Since the basis sets are specific for an atom TYPE, the individual functions occur on
    all atoms of that type.
 3. The word 'Core' in the left margin signals that it is a Core Function (CF) : not a
    degree of freedom in the valence set, but only used to ensure orthogonalization of
    the other valence basis functions on the frozen Core Orbitals.


 (power of) X  Y  Z  R     Alpha  on Atom
            ==========     =====     ==========

 N                                    1
                                  ---------------------------------------------------------------------------
    Core    0  0  0  0     6.380      1
            0  0  0  1     1.460      2
            0  0  0  1     2.380      3
            1  0  0  0     1.120      4
            0  1  0  0     1.120      5
            0  0  1  0     1.120      6
            1  0  0  0     2.580      7
            0  1  0  0     2.580      8
            0  0  1  0     2.580      9
1
 ***************************************************************************************************



                                              ***********************
                                              *  T E C H N I C A L  *
                                              ***********************
  



 =============================================================
 P A R A L L E L I Z A T I O N  and  V E C T O R I Z A T I O N
 =============================================================
  
 Nr of parallel processes:                                1
 Maximum vector length in NumInt loops:                 128



 =====================
 S C F   U P D A T E S
 =====================
  
 Max. nr. of cycles:                               300
 Convergence criterion:                              0.0000000100
   secondary criterion:                              0.0000000100

 Mix parameter (when DIIS does not apply):           0.2000000000
 Special mix parameter for the first cycle:          1.0000000000
 Mixed ADIIS+SDIIS will be used                  
    Max number of expansion vectors:                10
    Pure ADIIS when Max([F,P]) is above              0.1000000000
    Pure SDIIS when Max([F,P]) is below              0.0010000000
 Automatic ElectronSmearing (in case of problematic SCF convergence) disabled



 =================
 P R E C I S I O N  ***  (General: NumInt, NeglectFunctionTails, ...)  ***
 =================
  

 NumInt:           Target precision:                12.0000000000
 -------           Initial precision:               10.0000000000
                   Min. precision (optimization):   10.0000000000

 Neglect Functions:          Basis functions:        0.1000000000E-13
 ------------------          Fit functions:          0.1000000000E-13



 ===========================
 L I N E A R   S C A L I N G
 ===========================
  

 Cut-off radii density fit:                        0.1000000000E-97
 Overlap cut-off criterion AO matrix elements:     0.1000000000E-97
 Cut-offs for Coulomb potential and fitted density:0.1000000000E-97
 Cut-off criterion for Coulomb multipole terms:    0.1000000000E-97
 Progressive Convergence parameter:                 0.000000000    
1
 ***************************************************************************************************



                                            ***************************
                                            *  C O M P U T A T I O N  *
                                            ***************************
  

 Number of elements of the density matrix on this node (used, total):        45        45



 ===========================================
 Numerical Integration : Fuzzy Cells (Becke)
 ===========================================
  
 Becke grid quality: VERYGOOD       
  
 Lebedev angular grid order:             min:  13 max:  41
 Nr. of radial points:                   min:  68 max:  68

 Total nr. of points:         68
 Nr. of blocks:                1
 Block length:                68
 Nr. of dummy points:          0


 Test of Precision of the Numerical Integration Grid
 ===================================================

 Integral of the Total Core Density:                   2.00000004779027
 Relative Error:                                       2.390E-08



 ========================
 Density Fitting (zlmFit)
 ========================
  
 ZlmFit Fit Quality: VERYGOOD       
  
 Max L-expansion:                        min:   0 max:   0
 Nr. of radial interpolation points:     min: 150 max: 150



 =====
 S C F  ***  ScaSCF  ***
 =====
  

 CYCLE    1
 SCF Error: norm([F,P])=      0.000000000000, max([F,P])=      0.000000000000
 orbitals (Q,E):
 ---------------
 S :1...2            ( 2.00    -3.8308)  ( 0.00    -1.5342)
 P :1...2            ( 3.00    -3.5256)  ( 0.00    -1.4645)

 CYCLE    2
 SCF Error: norm([F,P])=      1.549673975551, max([F,P])=      1.258101921759
 orbitals (Q,E):
 ---------------
 S :1...2            ( 2.00    -0.1903)  ( 0.00     1.2168)
 P :1...2            ( 3.00     0.1546)  ( 0.00     1.2047)

 CYCLE    3
  SDIIS (wt  0.000):  0.4674  0.5326
 A-DIIS (wt  1.000):  0.3240  0.6760
  DIIS coefficients:  0.3240  0.6760
 SCF Error: norm([F,P])=      1.360249054281, max([F,P])=      1.048050156299
 orbitals (Q,E):
 ---------------
 S :1...2            ( 2.00    -0.8381)  ( 0.00     0.5861)
 P :1...2            ( 3.00    -0.4109)  ( 0.00     0.4817)

 CYCLE    4
  SDIIS (wt  0.000):  0.1928  0.8072
 A-DIIS (wt  1.000):  0.0000  1.0000
  DIIS coefficients:  0.0000  1.0000
 SCF Error: norm([F,P])=      0.325925918927, max([F,P])=      0.228226698732
 orbitals (Q,E):
 ---------------
 S :1...2            ( 2.00    -0.5797)  ( 0.00     0.7788)
 P :1...2            ( 3.00    -0.1643)  ( 0.00     0.6846)

 CYCLE    5
  SDIIS (wt  0.000):  0.4892  0.5108
 A-DIIS (wt  1.000):  0.4642  0.5358
  DIIS coefficients:  0.4642  0.5358
 SCF Error: norm([F,P])=      0.312119029167, max([F,P])=      0.221835145933
 orbitals (Q,E):
 ---------------
 S :1...2            ( 2.00    -0.6950)  ( 0.00     0.6844)
 P :1...2            ( 3.00    -0.2715)  ( 0.00     0.5814)

 CYCLE    6
  SDIIS (wt  0.928):  0.0359  0.9641
 A-DIIS (wt  0.072):  0.0000  1.0000
  DIIS coefficients:  0.0333  0.9667
 SCF Error: norm([F,P])=      0.011627935283, max([F,P])=      0.008114454643
 orbitals (Q,E):
 ---------------
 S :1...2            ( 2.00    -0.6895)  ( 0.00     0.6886)
 P :1...2            ( 3.00    -0.2663)  ( 0.00     0.5858)

 CYCLE    7
  SDIIS (wt  1.000):  0.0715  0.9285
  DIIS coefficients:  0.0715  0.9285
 SCF Error: norm([F,P])=      0.000895557034, max([F,P])=      0.000636506786
 orbitals (Q,E):
 ---------------
 S :1...2            ( 2.00    -0.6898)  ( 0.00     0.6884)
 P :1...2            ( 3.00    -0.2666)  ( 0.00     0.5855)

 CYCLE    8
  SDIIS (wt  1.000): -0.0084  1.0084
  DIIS coefficients: -0.0084  1.0084
 SCF Error: norm([F,P])=      0.000007431471, max([F,P])=      0.000005244833
 orbitals (Q,E):
 ---------------
 S :1...2            ( 2.00    -0.6898)  ( 0.00     0.6884)
 P :1...2            ( 3.00    -0.2666)  ( 0.00     0.5855)

 CYCLE    9
  SDIIS (wt  1.000):  0.0035  0.9965
  DIIS coefficients:  0.0035  0.9965
 SCF Error: norm([F,P])=      0.000000026230, max([F,P])=      0.000000018481
 orbitals (Q,E):
 ---------------
 S :1...2            ( 2.00    -0.6898)  ( 0.00     0.6884)
 P :1...2            ( 3.00    -0.2666)  ( 0.00     0.5855)

 CYCLE   10
  SDIIS (wt  1.000):  0.0008  0.9992
  DIIS coefficients:  0.0008  0.9992
 SCF Error: norm([F,P])=      0.000000000021, max([F,P])=      0.000000000015
 orbitals (Q,E):
 ---------------
 S :1...2            ( 2.00    -0.6898)  ( 0.00     0.6884)
 P :1...2            ( 3.00    -0.2666)  ( 0.00     0.5855)

 SCF CONVERGED

 CYCLE   11
1
 ***************************************************************************************************



                                                *******************
                                                *  R E S U L T S  *
                                                *******************
  
 *** Using FIT density in Focky
  SDIIS (wt  1.000):  0.0005  0.9995
  DIIS coefficients:  0.0005  0.9995
 SCF Error: norm([F,P])=      0.000000000000, max([F,P])=      0.000000000000

 Scaled ZORA Orbital Energies, per Irrep and Spin:
 =================================================
                        Occup              E (au)              E (eV)       Diff (eV) with prev. cycle
                        -----      --------------------        ------       --------------------------
 S
               1        2.000     -0.68979333234436E+00       -18.770               1.57E-13
               2        0.000      0.68835668824347E+00        18.731
 P
               1        3.000     -0.26655778219350E+00        -7.253               1.57E-13
               2        0.000      0.58549619457877E+00        15.932


 Partially Occupied:
               1 P                -0.26655778219350E+00
  
 HOMO :        1 S                -0.68979333234436E+00
 LUMO :        2 P                 0.58549619457877E+00
  


 Orbital Energies, all Irreps
 ========================================

 Irrep        no.  (spin)   Occup              E (au)                E (eV)
 ---------------------------------------------------------------------------
 S             1             2.00       -0.68979333234436E+00       -18.7702
 P             1             3.00       -0.26655778219350E+00        -7.2534
 P             2             0.00        0.58549619457877E+00        15.9322
 S             2             0.00        0.68835668824347E+00        18.7311


 Scaled ZORA Orbital Energies of the Core Orbitals:
 ==================================================

 (Note that the atoms are grouped by atomtype, see the labels, and may hence NOT be in input order)

 AtomType  Orbital  Atom                   E (au)                        E (eV)
 --------  -------  ----           --------------------        ----------------
 N           1S        1          -0.14166659762581E+02                -385.494



 =======================================
 M U L L I K E N   P O P U L A T I O N S
 =======================================
  
 The survey below gives for each atom:
 a) the total charge (Z minus electrons)
 b) the net spin polarization (nr of electrons spin-A minus spin-B)
 c) for each spin the atomic electron valence density (integrated) per L-value.

 Atom              Charge    Spin density          S         P         D         F
 ----              ------    ------------       ------    ------    ------    ------
 1 N              -0.0000                       2.0000    3.0000    0.0000    0.0000

 Populations of individual BAS functions
 ----------------------------------------
 1 N            0.0005  0.8702  1.1293  0.4947  0.4947  0.4947  0.5053  0.5053  0.5053

 Gross Charges per Atom (Z minus electrons)
 ==========================================
            -0.0000
 Net Total: -0.00000000



 =======================================================================
 Electrostatic potential at the Nuclei due to electrons and other nuclei
 =======================================================================
  
         Atom                  Potential
         ----                  ---------
     1)   N                  18.25311827
 
 
 ========================
 No memory problems found
 ========================
 
 Maximum number of active allocate calls:         319
 
 *******************************************************************************

                             A D F   E X I T
 NORMAL TERMINATION



 =================
 Timing Statistics
 =================
  
 Total Used :                     CPU=        0.65      System=        0.08     Elapsed=        1.02

 Calls  Section                     ( Mean, Percentage )
 ---------------------------------------------------------------------------------------------------
     3  ><      ................      0.00    0.52             0.00    2.79             0.00    0.90
     1  INIT    ................      0.10   15.19             0.01   11.71             0.14   13.27
     1  GEOMET  ................      0.03    5.00             0.01   12.47             0.07    7.08
     1  INPUTA  ................      0.01    0.78             0.00    1.34             0.01    0.95
     1  MAINSY  ................      0.02    3.83             0.00    6.11             0.05    5.08
     1  SYMFIT  ................      0.00    0.07             0.00    2.82             0.00    0.33
     1  CORORT  ................      0.00    0.24             0.00    0.73             0.00    0.45
     1  SYMORB  ................      0.00    0.22             0.00    0.00             0.00    0.28
     1  CLSMAT  ................      0.01    1.78             0.00    0.88             0.02    1.93
     1  ORTHON  ................      0.01    1.45             0.00    1.18             0.01    1.28
     1  GENPT   ................      0.01    2.12             0.00    6.23             0.03    3.07
     1  PTBAS   ................      0.01    0.98             0.00    3.08             0.02    1.58
    11  FOCKY   ................      0.03   50.76             0.00   31.24             0.04   41.86
    11  FOCKTR  ................      0.00    2.09             0.00    2.47             0.00    3.07
    11  SDIIS   ................      0.00    6.80             0.00   11.73             0.01   10.50
     1  COREPS  ................      0.03    4.13             0.00    1.22             0.04    3.52
     1  POPAN   ................      0.01    1.08             0.00    0.00             0.01    1.33
     1  DEBYE   ................      0.00    0.51             0.00    0.00             0.01    0.60
     1  EXIT PROCEDURE .........      0.02    2.44             0.00    4.01             0.03    2.93


 Currently Open Files (EXIT00)
 ====================

 Unit    Access Format  Status   Type       Ident (file)
 -------------------------------------------------------
   3      SEQ    FORM   TRANSP  NORMAL      LOGFILE
                                          ( logfile )

 ***************************************************************************************************
 (LOGFILE)
 <Feb04-2021> <20:25:52>  DIRAC 2019  RunTime: Feb04-2021 20:25:52  Nodes: 1  Procs: 1
 <Feb04-2021> <20:25:52>  NORMAL TERMINATION
 <Feb04-2021> <20:25:52>  END
 <Feb04-2021> <20:25:52>  ADF 2019  RunTime: Feb04-2021 20:25:52  Nodes: 1  Procs: 1
 <Feb04-2021> <20:25:52>  Hydrogen (DZ)
 <Feb04-2021> <20:25:52>  RunType   : CREATE
 <Feb04-2021> <20:25:52>  Net Charge: 0 (Nuclei minus Electrons)
 <Feb04-2021> <20:25:52>  Symmetry  : ATOM
  Coordinates
    Atom         X           Y           Z   (Angstrom)
    1.H         0.000000    0.000000    0.000000
 <Feb04-2021> <20:25:52>  >>>> CORORT
 <Feb04-2021> <20:25:52>  >>>> CLSMAT
 <Feb04-2021> <20:25:52>  >>>> ORTHON
 <Feb04-2021> <20:25:52>  >>>> GENPT
 <Feb04-2021> <20:25:53>  Block Length=  64
 <Feb04-2021> <20:25:53>  >>>> PTBAS
 <Feb04-2021> <20:25:53>  >>>> CYCLE
 <Feb04-2021> <20:25:53>              |Error|         MaxErr       Wt(A-DIIS)
 <Feb04-2021> <20:25:53>      1      0.00000000      0.00000000
 <Feb04-2021> <20:25:53>      2      0.03300193      0.03300193
 <Feb04-2021> <20:25:53>      3      0.00595445      0.00595445    100.0
 <Feb04-2021> <20:25:53>      4      0.00102040      0.00102040      0.0
 <Feb04-2021> <20:25:53>      5      0.00000144      0.00000144      0.0
 <Feb04-2021> <20:25:53>      6      0.00000000      0.00000000      0.0
 <Feb04-2021> <20:25:53>  SCF converged
 <Feb04-2021> <20:25:53>      7      0.00000000      0.00000000      0.0
 <Feb04-2021> <20:25:53>  >>>> POPAN
 <Feb04-2021> <20:25:53>  >>>> DEBYE
 <Feb04-2021> <20:25:53>  NORMAL TERMINATION
 <Feb04-2021> <20:25:53>  END
 <Feb04-2021> <20:25:53>  DIRAC 2019  RunTime: Feb04-2021 20:25:53  Nodes: 1  Procs: 1
 <Feb04-2021> <20:25:53>  NORMAL TERMINATION
 <Feb04-2021> <20:25:53>  END
 <Feb04-2021> <20:25:54>  ADF 2019  RunTime: Feb04-2021 20:25:54  Nodes: 1  Procs: 1
 <Feb04-2021> <20:25:54>  Nitrogen (DZ, 1s frozen)
 <Feb04-2021> <20:25:54>  RunType   : CREATE
 <Feb04-2021> <20:25:54>  Net Charge: 0 (Nuclei minus Electrons)
 <Feb04-2021> <20:25:54>  Symmetry  : ATOM
  Coordinates
    Atom         X           Y           Z   (Angstrom)
    1.N         0.000000    0.000000    0.000000
 <Feb04-2021> <20:25:54>  >>>> CORORT
 <Feb04-2021> <20:25:54>  >>>> CLSMAT
 <Feb04-2021> <20:25:54>  >>>> ORTHON
 <Feb04-2021> <20:25:54>  >>>> GENPT
 <Feb04-2021> <20:25:54>  Block Length=  68
 <Feb04-2021> <20:25:54>  >>>> PTBAS
 <Feb04-2021> <20:25:54>  >>>> CYCLE
 <Feb04-2021> <20:25:54>              |Error|         MaxErr       Wt(A-DIIS)
 <Feb04-2021> <20:25:54>      1      0.00000000      0.00000000
 <Feb04-2021> <20:25:54>      2      1.54967398      1.25810192
 <Feb04-2021> <20:25:54>      3      1.36024905      1.04805016    100.0
 <Feb04-2021> <20:25:54>      4      0.32592592      0.22822670    100.0
 <Feb04-2021> <20:25:54>      5      0.31211903      0.22183515    100.0
 <Feb04-2021> <20:25:54>      6      0.01162794      0.00811445      7.2
 <Feb04-2021> <20:25:54>      7      0.00089556      0.00063651      0.0
 <Feb04-2021> <20:25:54>      8      0.00000743      0.00000524      0.0
 <Feb04-2021> <20:25:54>      9      0.00000003      0.00000002      0.0
 <Feb04-2021> <20:25:54>     10      0.00000000      0.00000000      0.0
 <Feb04-2021> <20:25:54>  SCF converged
 <Feb04-2021> <20:25:54>     11      0.00000000      0.00000000      0.0
 <Feb04-2021> <20:25:54>  >>>> POPAN
 <Feb04-2021> <20:25:54>  >>>> DEBYE
 <Feb04-2021> <20:25:54>  NORMAL TERMINATION
 <Feb04-2021> <20:25:54>  END

 *******************************************************************************
 *                                                                             *
 *  -------------------------------------                                      *
 *   Amsterdam Density Functional  (ADF)         2019                          *
 *  -------------------------------------                                      *
 *                                               r74351 2019-04-25             *
 *                                                                             *
 *                                                                             *
 *                            =====================                            *
 *                            |                   |                            *
 *                            |     D I R A C     |                            *
 *                            |                   |                            *
 *                            =====================                            *
 *                                                                             *
 *                                                                             *
 *   Online information and documentation:  https://www.scm.com/support/       *
 *   E-mail:  support@scm.com   info@scm.com                                   *
 *                                                                             *
 *   Scientific publications using ADF results must be properly referenced     *
 *   See the User Manuals (or the web site) for recommended citations          *
 *   The terms and conditions of the End User License Agreement apply to       *
 *   the use of ADF, https://www.scm.com/license-terms/                        *
 *                                                                             *
 **********************  x86_64_linux_intel / intelmpi  ************************
 
 Licensed to: Dr. Emilie Guidez / UC Denver / Denver / CO / USA
 SCM User ID: u20218
  
 DIRAC 2019  RunTime: Feb04-2021 20:25:55  Nodes: 1  Procs: 1

 Temporary files are created in /home/chemistry/limjae/scr/kid_0.415466991

1
 GOLD ATOM 4d CORE RELATIVISTIC, Point Nuc, A and c from libt
 N J RN H ZN XION ANUC CLIGHT
 5000   22100.00000000197.36710137 79.00000000  0.00000000  196.966551  0.1370360E+03
  PH   PHI     EPS        DEL        DELRVR
  0.30  0.30     2500.00  0.00001000  0.00001000
 IDIRC  NC1  NDEBU NPRIN  IPUN IRCOR IWCOR
   1   300     0     0     0     0    14
   XALPHA      XLATTER      RNUC
  0.70000000  0.00000000  0.00000000 Point Charge
   XN   XL   XJ      XE          XZ      XDELL
  1.0  0.0  0.5   -2600.000       2.000     0.00000
  2.0  0.0  0.5    -425.000       2.000     0.00000
  2.0  1.0  0.5    -425.000       2.000     0.00000
  2.0  1.0  1.5    -425.000       4.000     0.00000
  3.0  0.0  0.5    -100.000       2.000     0.00000
  3.0  1.0  0.5    -100.000       2.000     0.00000
  3.0  1.0  1.5    -100.000       4.000     0.00000
  3.0  2.0  1.5     -80.000       4.000     0.00000
  3.0  2.0  2.5     -80.000       6.000     0.00000
  4.0  0.0  0.5     -22.000       2.000     0.00000
  4.0  1.0  0.5     -20.000       2.000     0.00000
  4.0  1.0  1.5     -20.000       4.000     0.00000
  4.0  2.0  1.5     -11.000       4.000     0.00000
  4.0  2.0  2.5     -11.000       6.000     0.00000
  4.0  3.0  2.5      -1.000       6.000     0.00000
  4.0  3.0  3.5      -1.000       8.000     0.00000
  5.0  0.0  0.5      -3.000       2.000     0.00000
  5.0  1.0  0.5      -2.200       2.000     0.00000
  5.0  1.0  1.5      -2.200       4.000     0.00000
  5.0  2.0  1.5      -0.500       4.000     0.00000
  5.0  2.0  2.5      -0.500       6.000     0.00000
  6.0  0.0  0.5      -0.200       1.000     0.00000
 ICORP=  0  NPCL=  0  DEMP=0.00  PEPS=0.000000
 R(1)=  0.1000000E-08 D=  0.1005080E+01 RNUC=  0.0000000E+00
 converged at cycle   60  DENSITY AVERAGING    0.0786
  MAXIMUM ERROR IN R.V(R) IS   0.38523360E-05
 Q,EY,EV,EZ,ESUM,ETOT,RHO  0.790000E+02 -0.485545E+03 -0.336404E+05 -0.479937E+05 -0.117486E+05 -0.190466E+05  0.196298E-08


 DIRAC CALCULATION
1                    GOLD ATOM 4d CORE RELATIVISTIC, Point Nuc, A and c from libtc


 EXCHANGE COEFFICIENT=  0.7000000           TAIL CORRECTION=  0.           NUCLEAR RADIUS=  0.000E+00
0                       ORBITAL    N    L    J     ELECTRONS     EIGENVALUE                DELTA OF EIGENV.

                          1S1/2  1.0  0.0  0.5     2.000       -0.2963119E+04                 0.3731460E-04
                          2S1/2  2.0  0.0  0.5     2.000       -0.5226069E+03                 0.3102938E-04
                          2P1/2  2.0  1.0  0.5     2.000       -0.5013071E+03                 0.3249986E-04
                          2P3/2  2.0  1.0  1.5     4.000       -0.4338328E+03                 0.3150316E-04
                          3S1/2  3.0  0.0  0.5     2.000       -0.1233461E+03                 0.2017137E-04
                          3P1/2  3.0  1.0  0.5     2.000       -0.1137481E+03                 0.2099254E-04
                          3P3/2  3.0  1.0  1.5     4.000       -0.9885554E+02                 0.1984570E-04
                          3D3/2  3.0  2.0  1.5     4.000       -0.8287610E+02                 0.2174809E-04
                          3D5/2  3.0  2.0  2.5     6.000       -0.7967162E+02                 0.2135379E-04
                          4S1/2  4.0  0.0  0.5     2.000       -0.2673972E+02                 0.1054160E-04
                          4P1/2  4.0  1.0  0.5     2.000       -0.2264484E+02                 0.1056903E-04
                          4P3/2  4.0  1.0  1.5     4.000       -0.1906321E+02                 0.9669504E-05
                          4D3/2  4.0  2.0  1.5     4.000       -0.1235180E+02                 0.9615342E-05
                          4D5/2  4.0  2.0  2.5     6.000       -0.1168427E+02                 0.9341815E-05
                          4F5/2  4.0  3.0  2.5     6.000       -0.3062221E+01                 0.8653601E-05
                          4F7/2  4.0  3.0  3.5     8.000       -0.2921300E+01                 0.8510675E-05
                          5S1/2  5.0  0.0  0.5     2.000       -0.3963776E+01                 0.3355907E-05
                          5P1/2  5.0  1.0  0.5     2.000       -0.2629660E+01                 0.2984355E-05
                          5P3/2  5.0  1.0  1.5     4.000       -0.2015087E+01                 0.2530381E-05
                          5D3/2  5.0  2.0  1.5     4.000       -0.2662248E+00                 0.1434098E-05
                          5D5/2  5.0  2.0  2.5     6.000       -0.2094938E+00                 0.1305568E-05
                          6S1/2  6.0  0.0  0.5     1.000       -0.1940684E+00                 0.3484321E-06


                                        NUCLEAR CHARGE=   79.000000
                            INTEGRAL OF CHARGE DENSITY=   79.000000
                           SUM OF THE ORBITAL ENERGIES= -11748.5839
                                          TOTAL ENERGY= -19046.6065
                                        KINETIC ENERGY=  21891.8398
                             NUCLEAR ATTRACTION ENERGY= -47993.6963
                             ELECTRON REPULSION ENERGY=   7419.4090
                                       EXCHANGE ENERGY=   -364.1591

 *******************************************************************************

                             D I R A C   E X I T
 NORMAL TERMINATION



 =================
 Timing Statistics
 =================
  
 Total Used :                     CPU=        0.61      System=        0.02     Elapsed=        0.76

 Calls  Section                     ( Mean, Percentage )
 ---------------------------------------------------------------------------------------------------
     2  ><      ................      0.00    0.00             0.00    0.03             0.00    0.00
     1  EXIT PROCEDURE .........      0.61  100.00             0.02   99.97             0.76  100.00


 Currently Open Files (EXIT00)
 ====================

 Unit    Access Format  Status   Type       Ident (file)
 -------------------------------------------------------
   3      SEQ    FORM   TRANSP  NORMAL      LOGFILE
                                          ( logfile )
 
Create Au   file=DZ-Au.4d
XC
 GGA PBE
End
relativistic ZORA
Corepotentials t12.rel
End

 *******************************************************************************
 *                                                                             *
 *  -------------------------------------                                      *
 *   Amsterdam Density Functional  (ADF)         2019                          *
 *  -------------------------------------                                      *
 *                                               r74351 2019-04-25             *
 *                                                                             *
 *                                                                             *
 *                              =================                              *
 *                              |               |                              *
 *                              |     A D F     |                              *
 *                              |               |                              *
 *                              =================                              *
 *                                                                             *
 *                                                                             *
 *   Online information and documentation:  https://www.scm.com/support/       *
 *   E-mail:  support@scm.com   info@scm.com                                   *
 *                                                                             *
 *   Scientific publications using ADF results must be properly referenced     *
 *   See the User Manuals (or the web site) for recommended citations          *
 *   The terms and conditions of the End User License Agreement apply to       *
 *   the use of ADF, https://www.scm.com/license-terms/                        *
 *                                                                             *
 **********************  x86_64_linux_intel / intelmpi  ************************
 
 Licensed to: Dr. Emilie Guidez / UC Denver / Denver / CO / USA
 SCM User ID: u20218
  
 ADF 2019  RunTime: Feb04-2021 20:25:56  Nodes: 1  Procs: 1

 Temporary files are created in /home/chemistry/limjae/scr/kid_0.982444526

 Gold (DZ, 4d frozen)



 ===========================
 A T T A C H E D   F I L E S
 ===========================
  
 CREATE - Data File:    DZ-Au.4d
                        Gold (DZ, 4d frozen)
 Core Potentials:
         file : t12.rel



 ===============================
 M O D E L   P A R A M E T E R S
 ===============================
  
 DENSITY FUNCTIONAL POTENTIAL (scf)
    LDA:                               PW92                                    == Not Default ==
    Gradient Corrections:              PBEc PBEx                               == Not Default ==

 SPIN  (restricted / unrestr.)
    Molecule:                          Restricted                               

 OTHER ASPECTS
    Relativistic Corrections:          scalar (ZORA,MAPA)                      == Not Default ==

    Nuclear Charge Density Model:      Point Charge Nuclei                      
    Core Treatment:                    Frozen Orbital(s)                        

    Hyperfine or Zeeman Interaction:   ---                                      



 =====================================
 S Y M M E T R Y ,   E L E C T R O N S
 =====================================
  
 Symmetry: ATOM

 Irreducible Representations, including subspecies
 -------------------------------------------------
 S
 P:x  P:y  P:z
 D:z2  D:x2-y2  D:xy  D:xz  D:yz
 F:z3  F:z  F:xyz  F:z2x  F:z2y  F:x  F:y


 Configuration of Valence Electrons
 ==================================

          Occupation Numbers
          -------------------------------------------------
 S        2 1
 P        6
 D        10
 F        14
          -------------------------------------------------

 Total:   33

 Net Charge: 0 (Nuclei minus Electrons)

 Preset values for MO occupations will be applied through SCF cycle no. 1000000
 Thereafter, the program will assign electrons to MOs that are spatially
 similar to the occupied MOs in a "reference" cycle ("KeepOrbitals").
 The reference cycle is always the PREVIOUS cycle: it will evolve with
 the SCF procedure.



 ================================
 (Slater-type)  F U N C T I O N S  ***  (Basis and Fit)  ***
 ================================
  

 Atom Type    1  (Au)
 ==============

 Valence Basis Sets:  21
 -----------------------
   1 S   57.000000
   2 S   36.650000
   3 S   21.050000
   4 S   12.400000
   2 P   39.650000
   3 P   17.950000
   4 P   12.550000
   3 D   22.100000
   4 D   11.200000
   5 S    7.000000
   5 S    4.600000
   6 S    2.850000
   6 S    1.510000
   5 P    6.000000
   5 P    3.700000
   5 D    4.350000
   5 D    2.000000
   4 F   16.150000
   4 F    8.900000
   4 F    4.900000
   6 P    1.950000

 Frozen Core Shells
 ------------------
    S:  4
    P:  3
    D:  2


 BAS: List of all Elementary Cartesian Basis Functions
 =====================================================

 The numbering in the list below (to the right of the function characteristics) is referred
 to in print-outs of MO eigenvectors and Mulliken populations in the BAS representation
 (as contrasted to the SFO representation).

 Notes:
 1. The functions are characterized by a polynomial prefactor (powers of x,y,z and r) and
    an exponential decay factor alpha.
 2. Since the basis sets are specific for an atom TYPE, the individual functions occur on
    all atoms of that type.
 3. The word 'Core' in the left margin signals that it is a Core Function (CF) : not a
    degree of freedom in the valence set, but only used to ensure orthogonalization of
    the other valence basis functions on the frozen Core Orbitals.


 (power of) X  Y  Z  R     Alpha  on Atom
            ==========     =====     ==========

 Au                                   1
                                  ---------------------------------------------------------------------------
    Core    0  0  0  0    57.000      1
    Core    0  0  0  1    36.650      2
    Core    0  0  0  2    21.050      3
    Core    0  0  0  3    12.400      4
    Core    1  0  0  0    39.650      5
    Core    0  1  0  0    39.650      6
    Core    0  0  1  0    39.650      7
    Core    1  0  0  1    17.950      8
    Core    0  1  0  1    17.950      9
    Core    0  0  1  1    17.950     10
    Core    1  0  0  2    12.550     11
    Core    0  1  0  2    12.550     12
    Core    0  0  1  2    12.550     13
    Core    2  0  0  0    22.100     14
    Core    1  1  0  0    22.100     15
    Core    1  0  1  0    22.100     16
    Core    0  2  0  0    22.100     17
    Core    0  1  1  0    22.100     18
    Core    0  0  2  0    22.100     19
    Core    2  0  0  1    11.200     20
    Core    1  1  0  1    11.200     21
    Core    1  0  1  1    11.200     22
    Core    0  2  0  1    11.200     23
    Core    0  1  1  1    11.200     24
    Core    0  0  2  1    11.200     25
            0  0  0  4     7.000     26
            0  0  0  4     4.600     27
            0  0  0  5     2.850     28
            0  0  0  5     1.510     29
            1  0  0  3     6.000     30
            0  1  0  3     6.000     31
            0  0  1  3     6.000     32
            1  0  0  3     3.700     33
            0  1  0  3     3.700     34
            0  0  1  3     3.700     35
            2  0  0  2     4.350     36
            1  1  0  2     4.350     37
            1  0  1  2     4.350     38
            0  2  0  2     4.350     39
            0  1  1  2     4.350     40
            0  0  2  2     4.350     41
            2  0  0  2     2.000     42
            1  1  0  2     2.000     43
            1  0  1  2     2.000     44
            0  2  0  2     2.000     45
            0  1  1  2     2.000     46
            0  0  2  2     2.000     47
            3  0  0  0    16.150     48
            2  1  0  0    16.150     49
            2  0  1  0    16.150     50
            1  2  0  0    16.150     51
            1  1  1  0    16.150     52
            1  0  2  0    16.150     53
            0  3  0  0    16.150     54
            0  2  1  0    16.150     55
            0  1  2  0    16.150     56
            0  0  3  0    16.150     57
            3  0  0  0     8.900     58
            2  1  0  0     8.900     59
            2  0  1  0     8.900     60
            1  2  0  0     8.900     61
            1  1  1  0     8.900     62
            1  0  2  0     8.900     63
            0  3  0  0     8.900     64
            0  2  1  0     8.900     65
            0  1  2  0     8.900     66
            0  0  3  0     8.900     67
            3  0  0  0     4.900     68
            2  1  0  0     4.900     69
            2  0  1  0     4.900     70
            1  2  0  0     4.900     71
            1  1  1  0     4.900     72
            1  0  2  0     4.900     73
            0  3  0  0     4.900     74
            0  2  1  0     4.900     75
            0  1  2  0     4.900     76
            0  0  3  0     4.900     77
            1  0  0  4     1.950     78
            0  1  0  4     1.950     79
            0  0  1  4     1.950     80

 Total number of charge fitting functions (nprimf)       327
 Total number of Cartesian basis functions (naos)         80
 Total number of Cartesian core functions  (ncos)         25



 BAS: List of all Elementary Cartesian Basis Functions
 =====================================================

 The numbering in the list below (to the right of the function characteristics) is referred
 to in print-outs of MO eigenvectors and Mulliken populations in the BAS representation
 (as contrasted to the SFO representation).

 Notes:
 1. The functions are characterized by a polynomial prefactor (powers of x,y,z and r) and
    an exponential decay factor alpha.
 2. Since the basis sets are specific for an atom TYPE, the individual functions occur on
    all atoms of that type.
 3. The word 'Core' in the left margin signals that it is a Core Function (CF) : not a
    degree of freedom in the valence set, but only used to ensure orthogonalization of
    the other valence basis functions on the frozen Core Orbitals.


 (power of) X  Y  Z  R     Alpha  on Atom
            ==========     =====     ==========

 Au                                   1
                                  ---------------------------------------------------------------------------
    Core    0  0  0  0    57.000      1
    Core    0  0  0  1    36.650      2
    Core    0  0  0  2    21.050      3
    Core    0  0  0  3    12.400      4
    Core    1  0  0  0    39.650      5
    Core    0  1  0  0    39.650      6
    Core    0  0  1  0    39.650      7
    Core    1  0  0  1    17.950      8
    Core    0  1  0  1    17.950      9
    Core    0  0  1  1    17.950     10
    Core    1  0  0  2    12.550     11
    Core    0  1  0  2    12.550     12
    Core    0  0  1  2    12.550     13
    Core    2  0  0  0    22.100     14
    Core    1  1  0  0    22.100     15
    Core    1  0  1  0    22.100     16
    Core    0  2  0  0    22.100     17
    Core    0  1  1  0    22.100     18
    Core    0  0  2  0    22.100     19
    Core    2  0  0  1    11.200     20
    Core    1  1  0  1    11.200     21
    Core    1  0  1  1    11.200     22
    Core    0  2  0  1    11.200     23
    Core    0  1  1  1    11.200     24
    Core    0  0  2  1    11.200     25
            0  0  0  4     7.000     26
            0  0  0  4     4.600     27
            0  0  0  5     2.850     28
            0  0  0  5     1.510     29
            1  0  0  3     6.000     30
            0  1  0  3     6.000     31
            0  0  1  3     6.000     32
            1  0  0  3     3.700     33
            0  1  0  3     3.700     34
            0  0  1  3     3.700     35
            2  0  0  2     4.350     36
            1  1  0  2     4.350     37
            1  0  1  2     4.350     38
            0  2  0  2     4.350     39
            0  1  1  2     4.350     40
            0  0  2  2     4.350     41
            2  0  0  2     2.000     42
            1  1  0  2     2.000     43
            1  0  1  2     2.000     44
            0  2  0  2     2.000     45
            0  1  1  2     2.000     46
            0  0  2  2     2.000     47
            3  0  0  0    16.150     48
            2  1  0  0    16.150     49
            2  0  1  0    16.150     50
            1  2  0  0    16.150     51
            1  1  1  0    16.150     52
            1  0  2  0    16.150     53
            0  3  0  0    16.150     54
            0  2  1  0    16.150     55
            0  1  2  0    16.150     56
            0  0  3  0    16.150     57
            3  0  0  0     8.900     58
            2  1  0  0     8.900     59
            2  0  1  0     8.900     60
            1  2  0  0     8.900     61
            1  1  1  0     8.900     62
            1  0  2  0     8.900     63
            0  3  0  0     8.900     64
            0  2  1  0     8.900     65
            0  1  2  0     8.900     66
            0  0  3  0     8.900     67
            3  0  0  0     4.900     68
            2  1  0  0     4.900     69
            2  0  1  0     4.900     70
            1  2  0  0     4.900     71
            1  1  1  0     4.900     72
            1  0  2  0     4.900     73
            0  3  0  0     4.900     74
            0  2  1  0     4.900     75
            0  1  2  0     4.900     76
            0  0  3  0     4.900     77
            1  0  0  4     1.950     78
            0  1  0  4     1.950     79
            0  0  1  4     1.950     80
1
 ***************************************************************************************************



                                              ***********************
                                              *  T E C H N I C A L  *
                                              ***********************
  



 =============================================================
 P A R A L L E L I Z A T I O N  and  V E C T O R I Z A T I O N
 =============================================================
  
 Nr of parallel processes:                                1
 Maximum vector length in NumInt loops:                 128



 =====================
 S C F   U P D A T E S
 =====================
  
 Max. nr. of cycles:                               300
 Convergence criterion:                              0.0000000100
   secondary criterion:                              0.0000000100

 Mix parameter (when DIIS does not apply):           0.2000000000
 Special mix parameter for the first cycle:          1.0000000000
 Mixed ADIIS+SDIIS will be used                  
    Max number of expansion vectors:                10
    Pure ADIIS when Max([F,P]) is above              0.1000000000
    Pure SDIIS when Max([F,P]) is below              0.0010000000
 Automatic ElectronSmearing (in case of problematic SCF convergence) disabled



 =================
 P R E C I S I O N  ***  (General: NumInt, NeglectFunctionTails, ...)  ***
 =================
  

 NumInt:           Target precision:                12.0000000000
 -------           Initial precision:               10.0000000000
                   Min. precision (optimization):   10.0000000000

 Neglect Functions:          Basis functions:        0.1000000000E-13
 ------------------          Fit functions:          0.1000000000E-13



 ===========================
 L I N E A R   S C A L I N G
 ===========================
  

 Cut-off radii density fit:                        0.1000000000E-97
 Overlap cut-off criterion AO matrix elements:     0.1000000000E-97
 Cut-offs for Coulomb potential and fitted density:0.1000000000E-97
 Cut-off criterion for Coulomb multipole terms:    0.1000000000E-97
 Progressive Convergence parameter:                 0.000000000    
1
 ***************************************************************************************************



                                            ***************************
                                            *  C O M P U T A T I O N  *
                                            ***************************
  

 Number of elements of the density matrix on this node (used, total):      3240      3240



 ===========================================
 Numerical Integration : Fuzzy Cells (Becke)
 ===========================================
  
 Becke grid quality: VERYGOOD       
  
 Lebedev angular grid order:             min:  13 max:  41
 Nr. of radial points:                   min: 123 max: 123

 Total nr. of points:        123
 Nr. of blocks:                1
 Block length:               123
 Nr. of dummy points:          0


 Test of Precision of the Numerical Integration Grid
 ===================================================

 Integral of the Total Core Density:                  45.99999991226612
 Relative Error:                                      -1.907E-09



 ========================
 Density Fitting (zlmFit)
 ========================
  
 ZlmFit Fit Quality: VERYGOOD       
  
 Max L-expansion:                        min:   0 max:   0
 Nr. of radial interpolation points:     min: 270 max: 270



 =====
 S C F  ***  ScaSCF  ***
 =====
  

 CYCLE    1
 SCF Error: norm([F,P])=      0.000000000000, max([F,P])=      0.000000000000
 orbitals (Q,E):
 ---------------
 S :1...4            ( 2.00   -36.7762)  ( 1.00   -21.6820)  ( 0.00   -12.9085)  ( 0.00    -7.1191)
 P :1...3            ( 6.00   -33.0866)  ( 0.00   -18.4007)  ( 0.00    -9.4584)
 D :1...2            (10.00   -25.1484)  ( 0.00   -11.3803)
[...]
 <Feb04-2021> <20:25:58>  RunType   : CREATE
 <Feb04-2021> <20:25:58>  Net Charge: 0 (Nuclei minus Electrons)
 <Feb04-2021> <20:25:58>  Symmetry  : ATOM
  Coordinates
    Atom         X           Y           Z   (Angstrom)
    1.O         0.000000    0.000000    0.000000
 <Feb04-2021> <20:25:58>  >>>> CORORT
 <Feb04-2021> <20:25:58>  >>>> CLSMAT
 <Feb04-2021> <20:25:58>  >>>> ORTHON
 <Feb04-2021> <20:25:58>  >>>> GENPT
 <Feb04-2021> <20:25:58>  Block Length=  68
 <Feb04-2021> <20:25:58>  >>>> PTBAS
 <Feb04-2021> <20:25:58>  >>>> CYCLE
 <Feb04-2021> <20:25:58>              |Error|         MaxErr       Wt(A-DIIS)
 <Feb04-2021> <20:25:58>      1      0.00000000      0.00000000
 <Feb04-2021> <20:25:58>      2      2.51022395      1.83694100
 <Feb04-2021> <20:25:58>      3      2.38195714      1.61935802    100.0
 <Feb04-2021> <20:25:58>      4      0.46758430      0.27634710    100.0
 <Feb04-2021> <20:25:58>      5      0.50410652      0.30498859    100.0
 <Feb04-2021> <20:25:58>      6      0.01247625      0.00764533      6.7
 <Feb04-2021> <20:25:58>      7      0.00085022      0.00051605      0.0
 <Feb04-2021> <20:25:58>      8      0.00000244      0.00000146      0.0
 <Feb04-2021> <20:25:58>      9      0.00000001      0.00000000      0.0
 <Feb04-2021> <20:25:58>  SCF converged
 <Feb04-2021> <20:25:59>     10      0.00000000      0.00000000      0.0
 <Feb04-2021> <20:25:59>  >>>> POPAN
 <Feb04-2021> <20:25:59>  >>>> DEBYE
 <Feb04-2021> <20:25:59>  NORMAL TERMINATION
 <Feb04-2021> <20:25:59>  END
 <Feb04-2021> <20:25:59>  DIRAC 2019  RunTime: Feb04-2021 20:25:59  Nodes: 1  Procs: 1
 <Feb04-2021> <20:25:59>  NORMAL TERMINATION
 <Feb04-2021> <20:25:59>  END
 <Feb04-2021> <20:25:59>  ADF 2019  RunTime: Feb04-2021 20:25:59  Nodes: 1  Procs: 1
 <Feb04-2021> <20:25:59>  Carbon (DZ, 1s frozen)
 <Feb04-2021> <20:25:59>  RunType   : CREATE
 <Feb04-2021> <20:25:59>  Net Charge: 0 (Nuclei minus Electrons)
 <Feb04-2021> <20:25:59>  Symmetry  : ATOM
  Coordinates
    Atom         X           Y           Z   (Angstrom)
    1.C         0.000000    0.000000    0.000000
 <Feb04-2021> <20:25:59>  >>>> CORORT
 <Feb04-2021> <20:25:59>  >>>> CLSMAT
 <Feb04-2021> <20:25:59>  >>>> ORTHON
 <Feb04-2021> <20:25:59>  >>>> GENPT
 <Feb04-2021> <20:25:59>  Block Length=  68
 <Feb04-2021> <20:25:59>  >>>> PTBAS
 <Feb04-2021> <20:25:59>  >>>> CYCLE
 <Feb04-2021> <20:26:00>              |Error|         MaxErr       Wt(A-DIIS)
 <Feb04-2021> <20:26:00>      1      0.00000000      0.00000000
 <Feb04-2021> <20:26:00>      2      0.96385221      0.85255436
 <Feb04-2021> <20:26:00>      3      0.69816270      0.60759186    100.0
 <Feb04-2021> <20:26:00>      4      0.25244702      0.20719292    100.0
 <Feb04-2021> <20:26:00>      5      0.19639955      0.16352478    100.0
 <Feb04-2021> <20:26:00>      6      0.03180040      0.02617408     25.4
 <Feb04-2021> <20:26:00>      7      0.00638036      0.00527666      4.3
 <Feb04-2021> <20:26:00>      8      0.00018258      0.00015050      0.0
 <Feb04-2021> <20:26:00>      9      0.00000052      0.00000043      0.0
 <Feb04-2021> <20:26:00>     10      0.00000000      0.00000000      0.0
 <Feb04-2021> <20:26:00>  SCF converged
 <Feb04-2021> <20:26:00>     11      0.00000000      0.00000000      0.0
 <Feb04-2021> <20:26:00>  >>>> POPAN
 <Feb04-2021> <20:26:00>  >>>> DEBYE
 <Feb04-2021> <20:26:00>  NORMAL TERMINATION
 <Feb04-2021> <20:26:00>  END
 <Feb04-2021> <20:26:00>  DIRAC 2019  RunTime: Feb04-2021 20:26:00  Nodes: 1  Procs: 1
 <Feb04-2021> <20:26:00>  NORMAL TERMINATION
 <Feb04-2021> <20:26:00>  END
 <Feb04-2021> <20:26:01>  ADF 2019  RunTime: Feb04-2021 20:26:01  Nodes: 1  Procs: 1
 <Feb04-2021> <20:26:01>  Sulphur (DZ, 1s frozen)
 <Feb04-2021> <20:26:01>  RunType   : CREATE
 <Feb04-2021> <20:26:01>  Net Charge: 0 (Nuclei minus Electrons)
 <Feb04-2021> <20:26:01>  Symmetry  : ATOM
  Coordinates
    Atom         X           Y           Z   (Angstrom)
    1.S         0.000000    0.000000    0.000000
 <Feb04-2021> <20:26:01>  >>>> CORORT
 <Feb04-2021> <20:26:01>  >>>> CLSMAT
 <Feb04-2021> <20:26:01>  >>>> ORTHON
 <Feb04-2021> <20:26:01>  >>>> GENPT
 <Feb04-2021> <20:26:01>  Block Length=  81
 <Feb04-2021> <20:26:01>  >>>> PTBAS
 <Feb04-2021> <20:26:01>  >>>> CYCLE
 <Feb04-2021> <20:26:01>              |Error|         MaxErr       Wt(A-DIIS)
 <Feb04-2021> <20:26:01>      1      0.00000000      0.00000000
 <Feb04-2021> <20:26:01>      2     21.51261243      7.94990220    100.0
 <Feb04-2021> <20:26:01>      3      8.52424195      2.62505450    100.0
 <Feb04-2021> <20:26:01>      4      4.38544525      1.60446246    100.0
 <Feb04-2021> <20:26:01>      5      1.43256362      0.55140611    100.0
 <Feb04-2021> <20:26:01>      6      0.89172576      0.34614537    100.0
 <Feb04-2021> <20:26:01>      7      0.16625992      0.07286926     72.6
 <Feb04-2021> <20:26:01>      8      0.10006764      0.04307754     42.5
 <Feb04-2021> <20:26:01>      9      0.01425650      0.00614423      5.2
 <Feb04-2021> <20:26:02>     10      0.00065307      0.00028041      0.0
 <Feb04-2021> <20:26:02>     11      0.00000094      0.00000039      0.0
 <Feb04-2021> <20:26:02>     12      0.00000001      0.00000000      0.0
 <Feb04-2021> <20:26:02>  SCF converged
 <Feb04-2021> <20:26:02>     13      0.00000000      0.00000000      0.0
 <Feb04-2021> <20:26:02>  >>>> POPAN
 <Feb04-2021> <20:26:02>  >>>> DEBYE
 <Feb04-2021> <20:26:02>  NORMAL TERMINATION
 <Feb04-2021> <20:26:02>  END
 <Feb04-2021> <20:26:02>  ADF 2019  RunTime: Feb04-2021 20:26:02  Nodes: 1  Procs: 1
 <Feb04-2021> <20:26:02>  Au25 + Thiol + CYST compounds.
 <Feb04-2021> <20:26:02>  RunType   : SINGLE POINT
 <Feb04-2021> <20:26:03>  WARNING: Restricted Open-Shell calculation, Unrestricted setup may be needed
 <Feb04-2021> <20:26:03>  Net Charge: 0 (Nuclei minus Electrons)
 <Feb04-2021> <20:26:03>  Symmetry  : NOSYM
 <Feb04-2021> <20:26:03>  >>>> FRAGM
  Coordinates
    Atom         X           Y           Z   (Angstrom)
    1.Au        9.735345   10.842291   10.255952
    2.Au        9.269871   10.724401   13.097674
    3.Au       12.053244   10.816804   11.923217
    4.Au       10.401693   13.112171   11.793507
    5.Au       10.411065    8.406911   11.582193
    6.Au        7.496109   12.247499   11.216667
    7.Au        7.545727    9.335197   11.280893
    8.Au       11.894009   12.328651    9.123454
    9.Au       12.010231    9.383873    9.380410
   10.Au        9.004723   13.254049    8.939516
   11.Au        7.395613   10.752698    8.615580
   12.Au        9.171058    8.516723    8.729414
   13.Au       10.129536   10.938774    7.416603
   14.Au        6.295766   10.748685   13.658978
   15.Au        8.162324    8.031967   13.989585
   16.Au       10.862319   13.568997    6.295422
   17.Au       13.037191   10.921691    6.682575
   18.Au       13.286585    7.703847   11.622402
   19.Au       11.217065    6.493886    9.476010
   20.Au        8.232505   15.165156   11.049129
   21.Au        5.982918   13.520228    9.004359
   22.Au       13.377768   13.476039   11.722057
   23.Au       11.648020   12.215771   14.521894
   24.Au        6.212144    7.986373    8.770422
   25.Au        7.655539    9.063526    6.151993
   26.S         9.723741    6.438556   13.007333
   27.S         6.614470    9.162994   15.524782
   28.S         5.294006   12.657201   12.475832
   29.S        14.236657    9.334230    8.112658
   30.S         9.383290   15.205494    7.341592
   31.S        12.262774   12.265010    4.776019
   32.S         9.735665    6.370399    7.476196
   33.S        14.145226    9.671694   12.817485
   34.S        12.869214    5.372324   10.942517
   35.S         5.434302   11.796102    7.361660
   36.S        10.373884   15.618561   12.234030
   37.S         5.941249   15.621000   10.266635
   38.S         9.749294   11.092370   15.589659
   39.S        13.583525   14.197759    9.398754
   40.S        13.853707   13.195332   14.100262
   41.S         9.594332   10.078960    5.059829
   42.S         6.592327    6.996035   10.971434
   43.S         5.325511    8.287576    6.505366
   44.C         8.437304    4.996020    7.885685
   45.C         8.343414    4.011989    6.690671
   46.H         7.477141    5.503175    8.058257
   47.H         8.749860    4.481351    8.805953
   48.N         7.244207    3.067191    6.836861
   49.H         9.300467    3.469320    6.589809
   50.H         8.192308    4.582552    5.757281
   51.C        14.278704    4.983097    9.662159
   52.C        13.723241    4.405927    8.337906
   53.H        14.937410    4.262771   10.174636
   54.H        14.834717    5.908276    9.472283
   55.N        14.749704    4.369770    7.303990
   56.H        12.896001    5.056558    7.999761
   57.H        13.279382    3.410242    8.537193
   58.C        15.475308   10.246116   11.549648
   59.C        16.439341    9.105113   11.185334
   60.H        16.013971   11.085647   12.012812
   61.H        14.946105   10.587316   10.653077
   62.N        17.335865    9.560666   10.114046
   63.H        15.835954    8.213640   10.906451
   64.H        17.042456    8.832565   12.067236
   65.C         6.313311   12.566219    5.799001
   66.C         5.961263   11.773012    4.524637
   67.H         7.395484   12.545968    5.983167
   68.H         5.967617   13.608887    5.727773
   69.N         6.752654   12.192997    3.365326
   70.H         4.887715   11.881495    4.294302
   71.H         6.155910   10.701283    4.695234
   72.C         6.204073   16.873906    8.814493
   73.C         5.155339   16.674946    7.701081
   74.H         7.209620   16.706194    8.408737
   75.H         6.136789   17.877006    9.265806
   76.N         5.355122   17.581440    6.570069
   77.H         4.136932   16.818531    8.099001
   78.H         5.221005   15.631988    7.342626
   79.C         9.646002   15.824905   14.008290
   80.C         8.528639   16.883164   14.045229
   81.H        10.482866   16.119190   14.659925
   82.H         9.265710   14.847427   14.322675
   83.N         7.899720   16.892141   15.386190
   84.H         7.795949   16.649617   13.247080
   85.H         8.957209   17.872994   13.813541
   86.C         5.778393   14.066612   13.704771
   87.C         5.165567   13.854597   15.096758
   88.H         5.408737   14.997836   13.250784
   89.H         6.872658   14.103467   13.763626
   90.N         5.670203   14.903237   16.021070
   91.H         5.415143   12.834416   15.448660
   92.H         4.066957   13.916962   15.020478
   93.C         4.981281    8.134266   15.497856
   94.C         5.251048    6.628200   15.547460
   95.N         3.967222    5.888037   15.342228
   96.H         5.755724    6.369679   16.498308
   97.H         5.934923    6.349886   14.728386
   98.H         4.406758    8.403674   14.603195
   99.H         4.430270    8.474325   16.390061
  100.C        11.107200    6.349415   14.349751
  101.C        11.433192    7.703125   15.003963
  102.H        11.990079    5.946316   13.832890
  103.H        10.760254    5.630738   15.108501
  104.N        12.560425    7.550779   15.921803
  105.H        10.551626    8.054257   15.566103
  106.H        11.625065    8.448827   14.206652
  107.C        10.864956    8.645568    4.944403
  108.C        10.390859    7.516960    4.022162
  109.H        11.018211    8.266794    5.960267
  110.H        11.794101    9.099030    4.571783
  111.N        11.322975    6.362540    4.189589
  112.H        10.429047    7.849258    2.972020
  113.H         9.340940    7.263551    4.268969
  114.C         5.321772    6.454461    5.908972
  115.C         4.352695    5.624607    6.757269
  116.H         6.338345    6.051795    5.974210
  117.H         5.008802    6.493943    4.852631
  118.N         4.442127    4.193270    6.356222
  119.H         3.333416    6.054286    6.675784
  120.H         4.665295    5.690206    7.812904
  121.C         4.841032    7.020195   11.768816
  122.C         4.348930    5.574434   11.871119
  123.H         4.170947    7.650108   11.168009
  124.H         4.970837    7.461218   12.763220
  125.N         3.114020    5.476753   12.718779
  126.H         5.110440    4.942754   12.354966
  127.H         4.129254    5.155804   10.877011
  128.C        14.084997    7.707741    7.100391
  129.C        14.650738    7.809131    5.681667
  130.H        13.023450    7.434186    7.073354
  131.H        14.644238    6.955071    7.667547
  132.N        14.353028    6.517886    5.004921
  133.H        15.743740    7.950239    5.726620
  134.H        14.215652    8.692492    5.169699
  135.C        13.840328   13.325339    4.391815
  136.C        15.045605   12.408019    4.056735
  137.H        14.058665   13.946683    5.267633
  138.H        13.564108   13.970052    3.541051
  139.N        16.323912   13.096081    4.103516
  140.H        14.886546   11.945990    3.065481
  141.H        15.071105   11.584442    4.794569
  142.C        10.677646   16.335784    8.251787
  143.C         9.991088   17.556598    8.890660
  144.H        11.175406   15.725641    9.013754
  145.H        11.411088   16.642018    7.489763
  146.N        10.919577   18.376068    9.679361
  147.H         9.193113   17.211129    9.570598
  148.H         9.524975   18.186530    8.113629
  149.C         8.606490   12.552928   16.096945
  150.C         9.316149   13.523398   17.053837
  151.H         7.738567   12.091074   16.590279
  152.H         8.278870   13.064482   15.185092
  153.N         8.399631   14.638620   17.394615
  154.H        10.254274   13.871268   16.579169
  155.H         9.598368   12.981169   17.971845
  156.C        13.656707   15.024528   14.686195
  157.C        13.380745   15.094655   16.199137
  158.H        14.613763   15.508427   14.431894
  159.H        12.844950   15.480530   14.100123
  160.N        14.405382   14.535439   17.078489
  161.H        12.430986   14.576100   16.412648
  162.H        13.238004   16.161209   16.461544
  163.C        15.356562   13.515497    9.023469
  164.C        15.598473   13.503984    7.510327
  165.H        15.457370   12.509428    9.450491
  166.H        16.045343   14.204146    9.538216
  167.N        16.964709   13.083971    7.117129
  168.H        15.413395   14.506354    7.091066
  169.H        14.884864   12.800725    7.049318
  170.H         4.094841    4.860098   15.274068
  171.H         3.277873    6.102675   16.078630
  172.H         6.480588   14.604970   16.604699
  173.H         4.932957   15.346532   16.580718
  174.H        13.497644    7.638033   15.528698
  175.H        12.448725    7.884078   16.877737
  176.H         8.476611   15.467324   16.767922
  177.H         8.417494   14.898010   18.387316
  178.H        14.477057   13.515889   17.096693
  179.H        15.304275   15.022237   17.100283
  180.H        17.701490   13.711747    7.466288
  181.H        17.169518   12.107293    7.366247
  182.H        16.932908    9.531561    9.175044
  183.H        18.314859    9.277546   10.174674
  184.H        14.653922    4.990397    6.482719
  185.H        15.318230    3.529999    7.210479
  186.H         7.352842    2.336521    7.542906
  187.H         6.283504    3.423640    6.670329
  188.H        11.314677    5.723946    3.382565
  189.H        11.118628    5.852211    5.061352
  190.H         4.178095    4.037365    5.373325
  191.H         3.894268    3.577543    6.973747
  192.H         2.288735    5.900625   12.264053
  193.H         3.313613    5.855364   13.711221
  194.H         6.586211   13.137279    3.009968
  195.H         7.732461   11.898451    3.360695
  196.H         5.059274   18.552158    6.682634
  197.H         6.197324   17.443457    6.008545
  198.H         7.010657   16.349724   15.440680
  199.H         7.820265   17.825407   15.803953
  200.H        11.654296   18.858321    9.153789
  201.H        11.239055   17.943895   10.551732
  202.H        16.573654   13.731205    3.347697
  203.H        16.757831   13.216439    5.032329
  204.H        15.022986    6.295661    4.256995
  205.H        13.369787    6.483797    4.660146
  206.O         3.398959    3.325944   13.944787
  207.C         2.715397    3.730928   12.980118
  208.O         1.881119    3.371436   12.132680
 <Feb04-2021> <20:26:04>  >>>> CORORT
 <Feb04-2021> <20:26:11>  >>>> CLSMAT
 <Feb04-2021> <20:26:16>  >>>> ORTHON
 <Feb04-2021> <20:26:25>  >>>> GENPT
 <Feb04-2021> <20:26:39>  Block Length= 128
 <Feb04-2021> <20:27:43>  >>>> PTBAS
 <Feb04-2021> <20:35:57>  >>>> CYCLE
 <Feb04-2021> <20:42:32>              |Error|         MaxErr       Wt(A-DIIS)
 <Feb04-2021> <20:42:32>      1      8.13334058      0.40650376
 <Feb04-2021> <20:51:21>      2      4.73287487      0.36102928    100.0
 <Feb04-2021> <21:00:11>      3     13.40333110      0.66947116    100.0
 <Feb04-2021> <21:09:12>      4      4.39685348      0.36545319    100.0
 <Feb04-2021> <21:18:05>      5      7.45201143      0.45631226    100.0
 <Feb04-2021> <21:26:51>      6      3.54103840      0.39814075    100.0
 <Feb04-2021> <21:35:39>      7      1.97745143      0.19679928    100.0
 <Feb04-2021> <21:44:33>      8     16.64830189      1.52861486    100.0
 <Feb04-2021> <21:53:22>      9      5.32101487      0.44599980    100.0
 <Feb04-2021> <22:02:09>     10      1.97334810      0.15900266    100.0
 <Feb04-2021> <22:10:57>     11      2.14218993      0.48373676    100.0
 <Feb04-2021> <22:19:45>     12      1.08170592      0.16372524    100.0
 <Feb04-2021> <22:28:36>     13      0.64073622      0.09721330     97.2
 <Feb04-2021> <22:37:26>     14      1.65042395      0.16222177    100.0
 <Feb04-2021> <22:46:17>     15      0.81695850      0.11736617    100.0
 <Feb04-2021> <22:55:07>     16      0.52393960      0.08000949     79.8
 <Feb04-2021> <23:03:57>     17      0.46058421      0.03706935     36.4
 <Feb04-2021> <23:12:47>     18      0.19776044      0.01586663     15.0
 <Feb04-2021> <23:21:36>     19      0.12324996      0.01823422     15.0
 <Feb04-2021> <23:30:25>     20      0.05105251      0.01159051     10.7
 <Feb04-2021> <23:39:14>     21      0.03988828      0.00252593      1.5
 <Feb04-2021> <23:48:02>     22      0.01680178      0.00115212      0.2
 <Feb04-2021> <23:56:50>     23      0.00708645      0.00073783      0.0
 <Feb05-2021> <00:05:40>     24      0.00326635      0.00037859      0.0
 <Feb05-2021> <00:14:31>     25      0.00197764      0.00014718      0.0
 <Feb05-2021> <00:23:19>     26      0.00187198      0.00026283      0.0
 <Feb05-2021> <00:32:09>     27      0.00130889      0.00012636      0.0
 <Feb05-2021> <00:40:59>     28      0.00021795      0.00002414      0.0
 <Feb05-2021> <00:49:48>     29      0.00017570      0.00001610      0.0
 <Feb05-2021> <00:58:38>     30      0.00017409      0.00001885      0.0
 <Feb05-2021> <01:07:25>     31      0.00002555      0.00000323      0.0
 <Feb05-2021> <01:16:14>     32      0.00002857      0.00000230      0.0
 <Feb05-2021> <01:25:02>     33      0.00001218      0.00000078      0.0
 <Feb05-2021> <01:33:54>     34      0.00000905      0.00000096      0.0
 <Feb05-2021> <01:36:02>  SCF converged
 <Feb05-2021> <01:42:59>     35      0.00000550      0.00000054      0.0
 <Feb05-2021> <01:43:14>  WARNING: partially occupied orbitals
 <Feb05-2021> <01:43:14>   Solutions with partially occupied orbitals may not be
 <Feb05-2021> <01:43:14>   lowest in energy. You might consider lowering the
 <Feb05-2021> <01:43:14>   symmetry in the input and explicitly specifying integer
 <Feb05-2021> <01:43:14>   occupations. In that case always check that you obtain
 <Feb05-2021> <01:43:14>   an aufbau solution.
 <Feb05-2021> <01:49:38>  >>>> TOTEN
 <Feb05-2021> <03:40:02>  >>>> POPAN
 <Feb05-2021> <03:40:09>  >>>> DEBYE
 <Feb05-2021> <03:40:48>  >>>> AMETS
 <Feb05-2021> <03:41:36>   Bond Energy         -36.87317496 a.u.
 <Feb05-2021> <03:41:36>   Bond Energy       -1003.37014259 eV
 <Feb05-2021> <03:41:36>   Bond Energy      -23138.27       kcal/mol
 <Feb05-2021> <03:41:36>  >>>> POPUL
 <Feb05-2021> <03:42:37>  NORMAL TERMINATION with warnings
 <Feb05-2021> <03:42:40>  END
