
 *******************************************************************************
 *                                                                             *
 *  -------------------------------------                                      *
 *   Amsterdam Density Functional  (ADF)         2019                          *
 *  -------------------------------------                                      *
 *                                               r74351 2019-04-25             *
 *                                                                             *
 *                                                                             *
 *                            =====================                            *
 *                            |                   |                            *
 *                            |     D I R A C     |                            *
 *                            |                   |                            *
 *                            =====================                            *
 *                                                                             *
 *                                                                             *
 *   Online information and documentation:  https://www.scm.com/support/       *
 *   E-mail:  support@scm.com   info@scm.com                                   *
 *                                                                             *
 *   Scientific publications using ADF results must be properly referenced     *
 *   See the User Manuals (or the web site) for recommended citations          *
 *   The terms and conditions of the End User License Agreement apply to       *
 *   the use of ADF, https://www.scm.com/license-terms/                        *
 *                                                                             *
 **********************  x86_64_linux_intel / intelmpi  ************************
 
 Licensed to: Dr. Emilie Guidez / UC Denver / Denver / CO / USA
 SCM User ID: u20218
  
 DIRAC 2019  RunTime: Feb04-2021 20:24:37  Nodes: 1  Procs: 1

 Temporary files are created in /home/chemistry/limjae/scr/kid_0.121358194

1
 HYDROGEN ATOM RELATIVISTIC, Point Nuc, A and c from libtc   
 N J RN H ZN XION ANUC CLIGHT
 5000    1100.00000000197.36710137  1.00000000  0.00000000    1.007825  0.1370360E+03
  PH   PHI     EPS        DEL        DELRVR
  0.30  0.30     2500.00  0.00001000  0.00001000
 IDIRC  NC1  NDEBU NPRIN  IPUN IRCOR IWCOR
   1   300     0     0     0     0     0
   XALPHA      XLATTER      RNUC
  0.70000000  0.00000000  0.00000000 Point Charge
   XN   XL   XJ      XE          XZ      XDELL
  1.0  0.0  0.5      -1.000       1.000     0.00000
 ICORP=  0  NPCL=  0  DEMP=0.00  PEPS=0.000000
 R(1)=  0.1000000E-08 D=  0.1005080E+01 RNUC=  0.0000000E+00
 converged at cycle   32  DENSITY AVERAGING    0.2400
  MAXIMUM ERROR IN R.V(R) IS   0.79874357E-05
 Q,EY,EV,EZ,ESUM,ETOT,RHO  0.100000E+01 -0.266614E+00 -0.619969E+00 -0.910779E+00 -0.203940E+00 -0.415998E+00  0.337036E-17


 DIRAC CALCULATION
1                    HYDROGEN ATOM RELATIVISTIC, Point Nuc, A and c from libtc


 EXCHANGE COEFFICIENT=  0.7000000           TAIL CORRECTION=  0.           NUCLEAR RADIUS=  0.000E+00
0                       ORBITAL    N    L    J     ELECTRONS     EIGENVALUE                DELTA OF EIGENV.

                          1S1/2  1.0  0.0  0.5     1.000       -0.2039397E+00                 0.2720093E-06


                                        NUCLEAR CHARGE=    1.000000
                            INTEGRAL OF CHARGE DENSITY=    1.000000
                           SUM OF THE ORBITAL ENERGIES=     -0.2039
                                          TOTAL ENERGY=     -0.4160
                                        KINETIC ENERGY=      0.4160
                             NUCLEAR ATTRACTION ENERGY=     -0.9108
                             ELECTRON REPULSION ENERGY=      0.2787
                                       EXCHANGE ENERGY=     -0.2000

 *******************************************************************************

                             D I R A C   E X I T
 NORMAL TERMINATION



 =================
 Timing Statistics
 =================
  
 Total Used :                     CPU=        0.07      System=        0.01     Elapsed=        0.13

 Calls  Section                     ( Mean, Percentage )
 ---------------------------------------------------------------------------------------------------
     2  ><      ................      0.00    0.01             0.00    0.05             0.00    0.01
     1  EXIT PROCEDURE .........      0.07   99.99             0.01   99.95             0.13   99.99


 Currently Open Files (EXIT00)
 ====================

 Unit    Access Format  Status   Type       Ident (file)
 -------------------------------------------------------
   3      SEQ    FORM   TRANSP  NORMAL      LOGFILE
                                          ( logfile )
 
Create H   file=DZ-H
XC
 GGA PBE
End
relativistic ZORA
Corepotentials t12.rel
End

 *******************************************************************************
 *                                                                             *
 *  -------------------------------------                                      *
 *   Amsterdam Density Functional  (ADF)         2019                          *
 *  -------------------------------------                                      *
 *                                               r74351 2019-04-25             *
 *                                                                             *
 *                                                                             *
 *                              =================                              *
 *                              |               |                              *
 *                              |     A D F     |                              *
 *                              |               |                              *
 *                              =================                              *
 *                                                                             *
 *                                                                             *
 *   Online information and documentation:  https://www.scm.com/support/       *
 *   E-mail:  support@scm.com   info@scm.com                                   *
 *                                                                             *
 *   Scientific publications using ADF results must be properly referenced     *
 *   See the User Manuals (or the web site) for recommended citations          *
 *   The terms and conditions of the End User License Agreement apply to       *
 *   the use of ADF, https://www.scm.com/license-terms/                        *
 *                                                                             *
 **********************  x86_64_linux_intel / intelmpi  ************************
 
 Licensed to: Dr. Emilie Guidez / UC Denver / Denver / CO / USA
 SCM User ID: u20218
  
 ADF 2019  RunTime: Feb04-2021 20:24:37  Nodes: 1  Procs: 1

 Temporary files are created in /home/chemistry/limjae/scr/kid_0.827950854

 Hydrogen (DZ)



 ===========================
 A T T A C H E D   F I L E S
 ===========================
  
 CREATE - Data File:    DZ-H
                        Hydrogen (DZ)
 Core Potentials:
         file : t12.rel



 ===============================
 M O D E L   P A R A M E T E R S
 ===============================
  
 DENSITY FUNCTIONAL POTENTIAL (scf)
    LDA:                               PW92                                    == Not Default ==
    Gradient Corrections:              PBEc PBEx                               == Not Default ==

 SPIN  (restricted / unrestr.)
    Molecule:                          Restricted                               

 OTHER ASPECTS
    Relativistic Corrections:          scalar (ZORA,MAPA)                      == Not Default ==

    Nuclear Charge Density Model:      Point Charge Nuclei                      
    Core Treatment:                    Frozen Orbital(s)                        

    Hyperfine or Zeeman Interaction:   ---                                      



 =====================================
 S Y M M E T R Y ,   E L E C T R O N S
 =====================================
  
 Symmetry: ATOM

 Irreducible Representations, including subspecies
 -------------------------------------------------
 S
 P:x  P:y  P:z
 D:z2  D:x2-y2  D:xy  D:xz  D:yz
 F:z3  F:z  F:xyz  F:z2x  F:z2y  F:x  F:y


 Configuration of Valence Electrons
 ==================================

          Occupation Numbers
          -------------------------------------------------
 S        1
 P        0
 D        0
 F        0
          -------------------------------------------------

 Total:   1

 Net Charge: 0 (Nuclei minus Electrons)

 Preset values for MO occupations will be applied through SCF cycle no. 1000000
 Thereafter, the program will assign electrons to MOs that are spatially
 similar to the occupied MOs in a "reference" cycle ("KeepOrbitals").
 The reference cycle is always the PREVIOUS cycle: it will evolve with
 the SCF procedure.



 ================================
 (Slater-type)  F U N C T I O N S  ***  (Basis and Fit)  ***
 ================================
  

 Atom Type    1  (H)
 ==============

 Valence Basis Sets:   2
 -----------------------
   1 S    0.760000
   1 S    1.280000


 BAS: List of all Elementary Cartesian Basis Functions
 =====================================================

 The numbering in the list below (to the right of the function characteristics) is referred
 to in print-outs of MO eigenvectors and Mulliken populations in the BAS representation
 (as contrasted to the SFO representation).

 Notes:
 1. The functions are characterized by a polynomial prefactor (powers of x,y,z and r) and
    an exponential decay factor alpha.
 2. Since the basis sets are specific for an atom TYPE, the individual functions occur on
    all atoms of that type.
 3. The word 'Core' in the left margin signals that it is a Core Function (CF) : not a
    degree of freedom in the valence set, but only used to ensure orthogonalization of
    the other valence basis functions on the frozen Core Orbitals.


 (power of) X  Y  Z  R     Alpha  on Atom
            ==========     =====     ==========

 H                                    1
                                  ---------------------------------------------------------------------------
            0  0  0  0     0.760      1
            0  0  0  0     1.280      2

 Total number of charge fitting functions (nprimf)        50
 Total number of Cartesian basis functions (naos)          2
 Total number of Cartesian core functions  (ncos)          0



 BAS: List of all Elementary Cartesian Basis Functions
 =====================================================

 The numbering in the list below (to the right of the function characteristics) is referred
 to in print-outs of MO eigenvectors and Mulliken populations in the BAS representation
 (as contrasted to the SFO representation).

 Notes:
 1. The functions are characterized by a polynomial prefactor (powers of x,y,z and r) and
    an exponential decay factor alpha.
 2. Since the basis sets are specific for an atom TYPE, the individual functions occur on
    all atoms of that type.
 3. The word 'Core' in the left margin signals that it is a Core Function (CF) : not a
    degree of freedom in the valence set, but only used to ensure orthogonalization of
    the other valence basis functions on the frozen Core Orbitals.


 (power of) X  Y  Z  R     Alpha  on Atom
            ==========     =====     ==========

 H                                    1
                                  ---------------------------------------------------------------------------
            0  0  0  0     0.760      1
            0  0  0  0     1.280      2
1
 ***************************************************************************************************



                                              ***********************
                                              *  T E C H N I C A L  *
                                              ***********************
  



 =============================================================
 P A R A L L E L I Z A T I O N  and  V E C T O R I Z A T I O N
 =============================================================
  
 Nr of parallel processes:                                1
 Maximum vector length in NumInt loops:                 128



 =====================
 S C F   U P D A T E S
 =====================
  
 Max. nr. of cycles:                               300
 Convergence criterion:                              0.0000000100
   secondary criterion:                              0.0000000100

 Mix parameter (when DIIS does not apply):           0.2000000000
 Special mix parameter for the first cycle:          1.0000000000
 Mixed ADIIS+SDIIS will be used                  
    Max number of expansion vectors:                10
    Pure ADIIS when Max([F,P]) is above              0.1000000000
    Pure SDIIS when Max([F,P]) is below              0.0010000000
 Automatic ElectronSmearing (in case of problematic SCF convergence) disabled



 =================
 P R E C I S I O N  ***  (General: NumInt, NeglectFunctionTails, ...)  ***
 =================
  

 NumInt:           Target precision:                12.0000000000
 -------           Initial precision:               10.0000000000
                   Min. precision (optimization):   10.0000000000

 Neglect Functions:          Basis functions:        0.1000000000E-13
 ------------------          Fit functions:          0.1000000000E-13



 ===========================
 L I N E A R   S C A L I N G
 ===========================
  

 Cut-off radii density fit:                        0.1000000000E-97
 Overlap cut-off criterion AO matrix elements:     0.1000000000E-97
 Cut-offs for Coulomb potential and fitted density:0.1000000000E-97
 Cut-off criterion for Coulomb multipole terms:    0.1000000000E-97
 Progressive Convergence parameter:                 0.000000000    
1
 ***************************************************************************************************



                                            ***************************
                                            *  C O M P U T A T I O N  *
                                            ***************************
  

 Number of elements of the density matrix on this node (used, total):         3         3



 ===========================================
 Numerical Integration : Fuzzy Cells (Becke)
 ===========================================
  
 Becke grid quality: VERYGOOD       
  
 Lebedev angular grid order:             min:  13 max:  41
 Nr. of radial points:                   min:  64 max:  64

 Total nr. of points:         64
 Nr. of blocks:                1
 Block length:                64
 Nr. of dummy points:          0


 Test of Precision of the Numerical Integration Grid
 ===================================================

 Integral of the Total Core Density:                   0.00000000000000



 ========================
 Density Fitting (zlmFit)
 ========================
  
 ZlmFit Fit Quality: VERYGOOD       
  
 Max L-expansion:                        min:   0 max:   0
 Nr. of radial interpolation points:     min: 120 max: 120



 =====
 S C F  ***  ScaSCF  ***
 =====
  

 CYCLE    1
 SCF Error: norm([F,P])=      0.000000000000, max([F,P])=      0.000000000000
 orbitals (Q,E):
 ---------------
 S :1...2            ( 1.00    -0.4983)  ( 0.00     0.1718)

 CYCLE    2
 SCF Error: norm([F,P])=      0.033001933656, max([F,P])=      0.033001933656
 orbitals (Q,E):
 ---------------
 S :1...2            ( 1.00    -0.2268)  ( 0.00     0.4005)

 CYCLE    3
  SDIIS (wt  0.000):  0.1528  0.8472
 A-DIIS (wt  1.000):  0.0000  1.0000
  DIIS coefficients:  0.0000  1.0000
 SCF Error: norm([F,P])=      0.005954454000, max([F,P])=      0.005954454000
 orbitals (Q,E):
 ---------------
 S :1...2            ( 1.00    -0.2417)  ( 0.00     0.3884)

 CYCLE    4
  SDIIS (wt  1.000):  0.1463  0.8537
 A-DIIS (wt  0.000):  0.0000  1.0000
  DIIS coefficients:  0.1463  0.8537
 SCF Error: norm([F,P])=      0.001020399433, max([F,P])=      0.001020399433
 orbitals (Q,E):
 ---------------
 S :1...2            ( 1.00    -0.2394)  ( 0.00     0.3902)

 CYCLE    5
  SDIIS (wt  1.000):  0.0014  0.9986
  DIIS coefficients:  0.0014  0.9986
 SCF Error: norm([F,P])=      0.000001436995, max([F,P])=      0.000001436995
 orbitals (Q,E):
 ---------------
 S :1...2            ( 1.00    -0.2394)  ( 0.00     0.3902)

 CYCLE    6
  SDIIS (wt  1.000): -0.0002  1.0002
  DIIS coefficients: -0.0002  1.0002
 SCF Error: norm([F,P])=      0.000000000334, max([F,P])=      0.000000000334
 orbitals (Q,E):
 ---------------
 S :1...2            ( 1.00    -0.2394)  ( 0.00     0.3902)

 SCF CONVERGED

 CYCLE    7
1
 ***************************************************************************************************



                                                *******************
                                                *  R E S U L T S  *
                                                *******************
  
 *** Using FIT density in Focky
  SDIIS (wt  1.000):  0.0000  1.0000
  DIIS coefficients:  0.0000  1.0000
 SCF Error: norm([F,P])=      0.000000000000, max([F,P])=      0.000000000000

 Scaled ZORA Orbital Energies, per Irrep and Spin:
 =================================================
                        Occup              E (au)              E (eV)       Diff (eV) with prev. cycle
                        -----      --------------------        ------       --------------------------
 S
               1        1.000     -0.23939248892723E+00        -6.514               9.37E-14
               2        0.000      0.39021645958604E+00        10.618


 Partially Occupied:
               1 S                -0.23939248892723E+00
  
 LUMO :        2 S                 0.39021645958604E+00
  


 All Electron Calculation, thus no Orbital Energies of the Core Orbitals are calculated



 =======================================
 M U L L I K E N   P O P U L A T I O N S
 =======================================
  
 The survey below gives for each atom:
 a) the total charge (Z minus electrons)
 b) the net spin polarization (nr of electrons spin-A minus spin-B)
 c) for each spin the atomic electron valence density (integrated) per L-value.

 Atom              Charge    Spin density          S         P         D         F
 ----              ------    ------------       ------    ------    ------    ------
 1 H              -0.0000                       1.0000    0.0000    0.0000    0.0000

 Populations of individual BAS functions
 ----------------------------------------
 1 H            0.6465  0.3535

 Gross Charges per Atom (Z minus electrons)
 ==========================================
            -0.0000
 Net Total: -0.00000000



 =======================================================================
 Electrostatic potential at the Nuclei due to electrons and other nuclei
 =======================================================================
  
         Atom                  Potential
         ----                  ---------
     1)   H                   0.94379605
 
 
 ========================
 No memory problems found
 ========================
 
 Maximum number of active allocate calls:         264
 
 *******************************************************************************

                             A D F   E X I T
 NORMAL TERMINATION



 =================
 Timing Statistics
 =================
  
 Total Used :                     CPU=        0.47      System=        0.06     Elapsed=        0.78

 Calls  Section                     ( Mean, Percentage )
 ---------------------------------------------------------------------------------------------------
     3  ><      ................      0.00    1.56             0.00    1.21             0.00    1.65
     1  INIT    ................      0.08   17.92             0.01   18.65             0.11   14.34
     1  GEOMET  ................      0.03    6.65             0.01   11.71             0.07    9.04
     1  INPUTA  ................      0.01    1.14             0.00    1.93             0.01    1.53
     1  MAINSY  ................      0.02    4.86             0.00    7.93             0.05    6.76
     1  SYMFIT  ................      0.00    0.47             0.00    0.09             0.00    0.36
     1  CORORT  ................      0.00    0.32             0.00    0.00             0.00    0.50
     1  SYMORB  ................      0.00    0.13             0.00    1.00             0.00    0.30
     1  CLSMAT  ................      0.01    2.20             0.00    0.33             0.02    2.19
     1  ORTHON  ................      0.01    1.73             0.00    0.00             0.01    1.41
     1  GENPT   ................      0.02    4.10             0.00    1.74             0.03    4.17
     1  PTBAS   ................      0.01    1.90             0.00    1.92             0.02    2.40
     7  FOCKY   ................      0.03   39.61             0.00   26.97             0.04   32.89
     7  FOCKTR  ................      0.00    1.69             0.00    3.33             0.00    2.58
     7  SDIIS   ................      0.00    6.75             0.00    7.22             0.01    9.31
     1  COREPS  ................      0.02    3.49             0.00    6.56             0.03    3.60
     1  POPAN   ................      0.01    1.68             0.00    1.42             0.02    2.08
     1  DEBYE   ................      0.00    0.74             0.00    1.71             0.01    1.06
     1  EXIT PROCEDURE .........      0.01    3.05             0.00    6.27             0.03    3.81


 Currently Open Files (EXIT00)
 ====================

 Unit    Access Format  Status   Type       Ident (file)
 -------------------------------------------------------
   3      SEQ    FORM   TRANSP  NORMAL      LOGFILE
                                          ( logfile )

 ***************************************************************************************************
 (LOGFILE)
 <Feb04-2021> <20:24:37>  DIRAC 2019  RunTime: Feb04-2021 20:24:37  Nodes: 1  Procs: 1
 <Feb04-2021> <20:24:37>  NORMAL TERMINATION
 <Feb04-2021> <20:24:37>  END
 <Feb04-2021> <20:24:37>  ADF 2019  RunTime: Feb04-2021 20:24:37  Nodes: 1  Procs: 1
 <Feb04-2021> <20:24:37>  Hydrogen (DZ)
 <Feb04-2021> <20:24:37>  RunType   : CREATE
 <Feb04-2021> <20:24:37>  Net Charge: 0 (Nuclei minus Electrons)
 <Feb04-2021> <20:24:37>  Symmetry  : ATOM
  Coordinates
    Atom         X           Y           Z   (Angstrom)
    1.H         0.000000    0.000000    0.000000
 <Feb04-2021> <20:24:37>  >>>> CORORT
 <Feb04-2021> <20:24:37>  >>>> CLSMAT
 <Feb04-2021> <20:24:37>  >>>> ORTHON
 <Feb04-2021> <20:24:37>  >>>> GENPT
 <Feb04-2021> <20:24:37>  Block Length=  64
 <Feb04-2021> <20:24:37>  >>>> PTBAS
 <Feb04-2021> <20:24:37>  >>>> CYCLE
 <Feb04-2021> <20:24:37>              |Error|         MaxErr       Wt(A-DIIS)
 <Feb04-2021> <20:24:37>      1      0.00000000      0.00000000
 <Feb04-2021> <20:24:37>      2      0.03300193      0.03300193
 <Feb04-2021> <20:24:37>      3      0.00595445      0.00595445    100.0
 <Feb04-2021> <20:24:37>      4      0.00102040      0.00102040      0.0
 <Feb04-2021> <20:24:38>      5      0.00000144      0.00000144      0.0
 <Feb04-2021> <20:24:38>      6      0.00000000      0.00000000      0.0
 <Feb04-2021> <20:24:38>  SCF converged
 <Feb04-2021> <20:24:38>      7      0.00000000      0.00000000      0.0
 <Feb04-2021> <20:24:38>  >>>> POPAN
 <Feb04-2021> <20:24:38>  >>>> DEBYE
 <Feb04-2021> <20:24:38>  NORMAL TERMINATION
 <Feb04-2021> <20:24:38>  END

 *******************************************************************************
 *                                                                             *
 *  -------------------------------------                                      *
 *   Amsterdam Density Functional  (ADF)         2019                          *
 *  -------------------------------------                                      *
 *                                               r74351 2019-04-25             *
 *                                                                             *
 *                                                                             *
 *                            =====================                            *
 *                            |                   |                            *
 *                            |     D I R A C     |                            *
 *                            |                   |                            *
 *                            =====================                            *
 *                                                                             *
 *                                                                             *
 *   Online information and documentation:  https://www.scm.com/support/       *
 *   E-mail:  support@scm.com   info@scm.com                                   *
 *                                                                             *
 *   Scientific publications using ADF results must be properly referenced     *
 *   See the User Manuals (or the web site) for recommended citations          *
 *   The terms and conditions of the End User License Agreement apply to       *
 *   the use of ADF, https://www.scm.com/license-terms/                        *
 *                                                                             *
 **********************  x86_64_linux_intel / intelmpi  ************************
 
 Licensed to: Dr. Emilie Guidez / UC Denver / Denver / CO / USA
 SCM User ID: u20218
  
 DIRAC 2019  RunTime: Feb04-2021 20:24:38  Nodes: 1  Procs: 1

 Temporary files are created in /home/chemistry/limjae/scr/kid_0.1000266063

1
 NITROGEN ATOM 1s CORE RELATIVISTIC, Point Nuc, A and c from 
 N J RN H ZN XION ANUC CLIGHT
 5000    4100.00000000197.36710137  7.00000000  0.00000000   14.003074  0.1370360E+03
  PH   PHI     EPS        DEL        DELRVR
  0.30  0.30     2500.00  0.00001000  0.00001000
 IDIRC  NC1  NDEBU NPRIN  IPUN IRCOR IWCOR
   1   300     0     0     0     0     1
   XALPHA      XLATTER      RNUC
  0.70000000  0.00000000  0.00000000 Point Charge
   XN   XL   XJ      XE          XZ      XDELL
  1.0  0.0  0.5      -5.000       2.000     0.00000
  2.0  0.0  0.5      -1.000       2.000     0.00000
  2.0  1.0  0.5      -1.000       2.000     0.00000
  2.0  1.0  1.5      -1.000       1.000     0.00000
 ICORP=  0  NPCL=  0  DEMP=0.00  PEPS=0.000000
 R(1)=  0.1000000E-08 D=  0.1005080E+01 RNUC=  0.0000000E+00
 converged at cycle   25  DENSITY AVERAGING    0.3000
  MAXIMUM ERROR IN R.V(R) IS   0.97905511E-05
 Q,EY,EV,EZ,ESUM,ETOT,RHO  0.700000E+01 -0.796419E+01 -0.840156E+02 -0.127663E+03 -0.300692E+02 -0.538837E+02  0.270066E-14


 DIRAC CALCULATION
1                    NITROGEN ATOM 1s CORE RELATIVISTIC, Point Nuc, A and c from libtc


 EXCHANGE COEFFICIENT=  0.7000000           TAIL CORRECTION=  0.           NUCLEAR RADIUS=  0.000E+00
0                       ORBITAL    N    L    J     ELECTRONS     EIGENVALUE                DELTA OF EIGENV.

                          1S1/2  1.0  0.0  0.5     2.000       -0.1403720E+02                 0.4993583E-04
                          2S1/2  2.0  0.0  0.5     2.000       -0.6456810E+00                 0.6544571E-05
                          2P1/2  2.0  1.0  0.5     2.000       -0.2347008E+00                 0.5687228E-05
                          2P3/2  2.0  1.0  1.5     1.000       -0.2339893E+00                 0.5679256E-05


                                        NUCLEAR CHARGE=    7.000000
                            INTEGRAL OF CHARGE DENSITY=    7.000000
                           SUM OF THE ORBITAL ENERGIES=    -30.0692
                                          TOTAL ENERGY=    -53.8837
                                        KINETIC ENERGY=     53.9465
                             NUCLEAR ATTRACTION ENERGY=   -127.6627
                             ELECTRON REPULSION ENERGY=     25.8056
                                       EXCHANGE ENERGY=     -5.9731

 *******************************************************************************

                             D I R A C   E X I T
 NORMAL TERMINATION



 =================
 Timing Statistics
 =================
  
 Total Used :                     CPU=        0.10      System=        0.01     Elapsed=        0.18

 Calls  Section                     ( Mean, Percentage )
 ---------------------------------------------------------------------------------------------------
     2  ><      ................      0.00    0.00             0.00    0.06             0.00    0.01
     1  EXIT PROCEDURE .........      0.10  100.00             0.01   99.94             0.18   99.99


 Currently Open Files (EXIT00)
 ====================

 Unit    Access Format  Status   Type       Ident (file)
 -------------------------------------------------------
   3      SEQ    FORM   TRANSP  NORMAL      LOGFILE
                                          ( logfile )
 
Create N   file=DZ-N.1s
XC
 GGA PBE
End
relativistic ZORA
Corepotentials t12.rel
End

 *******************************************************************************
 *                                                                             *
 *  -------------------------------------                                      *
 *   Amsterdam Density Functional  (ADF)         2019                          *
 *  -------------------------------------                                      *
 *                                               r74351 2019-04-25             *
 *                                                                             *
 *                                                                             *
 *                              =================                              *
 *                              |               |                              *
 *                              |     A D F     |                              *
 *                              |               |                              *
 *                              =================                              *
 *                                                                             *
 *                                                                             *
 *   Online information and documentation:  https://www.scm.com/support/       *
 *   E-mail:  support@scm.com   info@scm.com                                   *
 *                                                                             *
 *   Scientific publications using ADF results must be properly referenced     *
 *   See the User Manuals (or the web site) for recommended citations          *
 *   The terms and conditions of the End User License Agreement apply to       *
 *   the use of ADF, https://www.scm.com/license-terms/                        *
 *                                                                             *
 **********************  x86_64_linux_intel / intelmpi  ************************
 
 Licensed to: Dr. Emilie Guidez / UC Denver / Denver / CO / USA
 SCM User ID: u20218
  
 ADF 2019  RunTime: Feb04-2021 20:24:38  Nodes: 1  Procs: 1

 Temporary files are created in /home/chemistry/limjae/scr/kid_0.1835600017

 Nitrogen (DZ, 1s frozen)



 ===========================
 A T T A C H E D   F I L E S
 ===========================
  
 CREATE - Data File:    DZ-N.1s
                        Nitrogen (DZ, 1s frozen)
 Core Potentials:
         file : t12.rel



 ===============================
 M O D E L   P A R A M E T E R S
 ===============================
  
 DENSITY FUNCTIONAL POTENTIAL (scf)
    LDA:                               PW92                                    == Not Default ==
    Gradient Corrections:              PBEc PBEx                               == Not Default ==

 SPIN  (restricted / unrestr.)
    Molecule:                          Restricted                               

 OTHER ASPECTS
    Relativistic Corrections:          scalar (ZORA,MAPA)                      == Not Default ==

    Nuclear Charge Density Model:      Point Charge Nuclei                      
    Core Treatment:                    Frozen Orbital(s)                        

    Hyperfine or Zeeman Interaction:   ---                                      



 =====================================
 S Y M M E T R Y ,   E L E C T R O N S
 =====================================
  
 Symmetry: ATOM

 Irreducible Representations, including subspecies
 -------------------------------------------------
 S
 P:x  P:y  P:z
 D:z2  D:x2-y2  D:xy  D:xz  D:yz
 F:z3  F:z  F:xyz  F:z2x  F:z2y  F:x  F:y


 Configuration of Valence Electrons
 ==================================

          Occupation Numbers
          -------------------------------------------------
 S        2
 P        3
 D        0
 F        0
          -------------------------------------------------

 Total:   5

 Net Charge: 0 (Nuclei minus Electrons)

 Preset values for MO occupations will be applied through SCF cycle no. 1000000
 Thereafter, the program will assign electrons to MOs that are spatially
 similar to the occupied MOs in a "reference" cycle ("KeepOrbitals").
 The reference cycle is always the PREVIOUS cycle: it will evolve with
 the SCF procedure.



 ================================
 (Slater-type)  F U N C T I O N S  ***  (Basis and Fit)  ***
 ================================
  

 Atom Type    1  (N)
 ==============

 Valence Basis Sets:   5
 -----------------------
   1 S    6.380000
   2 S    1.460000
   2 S    2.380000
   2 P    1.120000
   2 P    2.580000

 Frozen Core Shells
 ------------------
    S:  1


 BAS: List of all Elementary Cartesian Basis Functions
 =====================================================

 The numbering in the list below (to the right of the function characteristics) is referred
 to in print-outs of MO eigenvectors and Mulliken populations in the BAS representation
 (as contrasted to the SFO representation).

 Notes:
 1. The functions are characterized by a polynomial prefactor (powers of x,y,z and r) and
    an exponential decay factor alpha.
 2. Since the basis sets are specific for an atom TYPE, the individual functions occur on
    all atoms of that type.
 3. The word 'Core' in the left margin signals that it is a Core Function (CF) : not a
    degree of freedom in the valence set, but only used to ensure orthogonalization of
    the other valence basis functions on the frozen Core Orbitals.


 (power of) X  Y  Z  R     Alpha  on Atom
            ==========     =====     ==========

 N                                    1
                                  ---------------------------------------------------------------------------
    Core    0  0  0  0     6.380      1
            0  0  0  1     1.460      2
            0  0  0  1     2.380      3
            1  0  0  0     1.120      4
            0  1  0  0     1.120      5
            0  0  1  0     1.120      6
            1  0  0  0     2.580      7
            0  1  0  0     2.580      8
            0  0  1  0     2.580      9

 Total number of charge fitting functions (nprimf)        82
 Total number of Cartesian basis functions (naos)          9
 Total number of Cartesian core functions  (ncos)          1



 BAS: List of all Elementary Cartesian Basis Functions
 =====================================================

 The numbering in the list below (to the right of the function characteristics) is referred
 to in print-outs of MO eigenvectors and Mulliken populations in the BAS representation
 (as contrasted to the SFO representation).

 Notes:
 1. The functions are characterized by a polynomial prefactor (powers of x,y,z and r) and
    an exponential decay factor alpha.
 2. Since the basis sets are specific for an atom TYPE, the individual functions occur on
    all atoms of that type.
 3. The word 'Core' in the left margin signals that it is a Core Function (CF) : not a
    degree of freedom in the valence set, but only used to ensure orthogonalization of
    the other valence basis functions on the frozen Core Orbitals.


 (power of) X  Y  Z  R     Alpha  on Atom
            ==========     =====     ==========

 N                                    1
                                  ---------------------------------------------------------------------------
    Core    0  0  0  0     6.380      1
            0  0  0  1     1.460      2
            0  0  0  1     2.380      3
            1  0  0  0     1.120      4
            0  1  0  0     1.120      5
            0  0  1  0     1.120      6
            1  0  0  0     2.580      7
            0  1  0  0     2.580      8
            0  0  1  0     2.580      9
1
 ***************************************************************************************************



                                              ***********************
                                              *  T E C H N I C A L  *
                                              ***********************
  



 =============================================================
 P A R A L L E L I Z A T I O N  and  V E C T O R I Z A T I O N
 =============================================================
  
 Nr of parallel processes:                                1
 Maximum vector length in NumInt loops:                 128



 =====================
 S C F   U P D A T E S
 =====================
  
 Max. nr. of cycles:                               300
 Convergence criterion:                              0.0000000100
   secondary criterion:                              0.0000000100

 Mix parameter (when DIIS does not apply):           0.2000000000
 Special mix parameter for the first cycle:          1.0000000000
 Mixed ADIIS+SDIIS will be used                  
    Max number of expansion vectors:                10
    Pure ADIIS when Max([F,P]) is above              0.1000000000
    Pure SDIIS when Max([F,P]) is below              0.0010000000
 Automatic ElectronSmearing (in case of problematic SCF convergence) disabled



 =================
 P R E C I S I O N  ***  (General: NumInt, NeglectFunctionTails, ...)  ***
 =================
  

 NumInt:           Target precision:                12.0000000000
 -------           Initial precision:               10.0000000000
                   Min. precision (optimization):   10.0000000000

 Neglect Functions:          Basis functions:        0.1000000000E-13
 ------------------          Fit functions:          0.1000000000E-13



 ===========================
 L I N E A R   S C A L I N G
 ===========================
  

 Cut-off radii density fit:                        0.1000000000E-97
 Overlap cut-off criterion AO matrix elements:     0.1000000000E-97
 Cut-offs for Coulomb potential and fitted density:0.1000000000E-97
 Cut-off criterion for Coulomb multipole terms:    0.1000000000E-97
 Progressive Convergence parameter:                 0.000000000    
1
 ***************************************************************************************************



                                            ***************************
                                            *  C O M P U T A T I O N  *
                                            ***************************
  

 Number of elements of the density matrix on this node (used, total):        45        45



 ===========================================
 Numerical Integration : Fuzzy Cells (Becke)
 ===========================================
  
 Becke grid quality: VERYGOOD       
  
 Lebedev angular grid order:             min:  13 max:  41
 Nr. of radial points:                   min:  68 max:  68

 Total nr. of points:         68
 Nr. of blocks:                1
 Block length:                68
 Nr. of dummy points:          0


 Test of Precision of the Numerical Integration Grid
 ===================================================

 Integral of the Total Core Density:                   2.00000004779027
 Relative Error:                                       2.390E-08



 ========================
 Density Fitting (zlmFit)
 ========================
  
 ZlmFit Fit Quality: VERYGOOD       
  
 Max L-expansion:                        min:   0 max:   0
 Nr. of radial interpolation points:     min: 150 max: 150



 =====
 S C F  ***  ScaSCF  ***
 =====
  

 CYCLE    1
 SCF Error: norm([F,P])=      0.000000000000, max([F,P])=      0.000000000000
 orbitals (Q,E):
 ---------------
 S :1...2            ( 2.00    -3.8308)  ( 0.00    -1.5342)
 P :1...2            ( 3.00    -3.5256)  ( 0.00    -1.4645)

 CYCLE    2
 SCF Error: norm([F,P])=      1.549673975551, max([F,P])=      1.258101921759
 orbitals (Q,E):
 ---------------
 S :1...2            ( 2.00    -0.1903)  ( 0.00     1.2168)
 P :1...2            ( 3.00     0.1546)  ( 0.00     1.2047)

 CYCLE    3
  SDIIS (wt  0.000):  0.4674  0.5326
 A-DIIS (wt  1.000):  0.3240  0.6760
  DIIS coefficients:  0.3240  0.6760
 SCF Error: norm([F,P])=      1.360249054281, max([F,P])=      1.048050156299
 orbitals (Q,E):
 ---------------
 S :1...2            ( 2.00    -0.8381)  ( 0.00     0.5861)
 P :1...2            ( 3.00    -0.4109)  ( 0.00     0.4817)

 CYCLE    4
  SDIIS (wt  0.000):  0.1928  0.8072
 A-DIIS (wt  1.000):  0.0000  1.0000
  DIIS coefficients:  0.0000  1.0000
 SCF Error: norm([F,P])=      0.325925918927, max([F,P])=      0.228226698732
 orbitals (Q,E):
 ---------------
 S :1...2            ( 2.00    -0.5797)  ( 0.00     0.7788)
 P :1...2            ( 3.00    -0.1643)  ( 0.00     0.6846)

 CYCLE    5
  SDIIS (wt  0.000):  0.4892  0.5108
 A-DIIS (wt  1.000):  0.4642  0.5358
  DIIS coefficients:  0.4642  0.5358
 SCF Error: norm([F,P])=      0.312119029167, max([F,P])=      0.221835145933
 orbitals (Q,E):
 ---------------
 S :1...2            ( 2.00    -0.6950)  ( 0.00     0.6844)
 P :1...2            ( 3.00    -0.2715)  ( 0.00     0.5814)

 CYCLE    6
  SDIIS (wt  0.928):  0.0359  0.9641
 A-DIIS (wt  0.072):  0.0000  1.0000
  DIIS coefficients:  0.0333  0.9667
 SCF Error: norm([F,P])=      0.011627935283, max([F,P])=      0.008114454643
 orbitals (Q,E):
 ---------------
 S :1...2            ( 2.00    -0.6895)  ( 0.00     0.6886)
 P :1...2            ( 3.00    -0.2663)  ( 0.00     0.5858)

 CYCLE    7
  SDIIS (wt  1.000):  0.0715  0.9285
  DIIS coefficients:  0.0715  0.9285
 SCF Error: norm([F,P])=      0.000895557034, max([F,P])=      0.000636506786
 orbitals (Q,E):
 ---------------
 S :1...2            ( 2.00    -0.6898)  ( 0.00     0.6884)
 P :1...2            ( 3.00    -0.2666)  ( 0.00     0.5855)

 CYCLE    8
  SDIIS (wt  1.000): -0.0084  1.0084
  DIIS coefficients: -0.0084  1.0084
 SCF Error: norm([F,P])=      0.000007431471, max([F,P])=      0.000005244833
 orbitals (Q,E):
 ---------------
 S :1...2            ( 2.00    -0.6898)  ( 0.00     0.6884)
 P :1...2            ( 3.00    -0.2666)  ( 0.00     0.5855)

 CYCLE    9
  SDIIS (wt  1.000):  0.0035  0.9965
  DIIS coefficients:  0.0035  0.9965
 SCF Error: norm([F,P])=      0.000000026230, max([F,P])=      0.000000018481
 orbitals (Q,E):
 ---------------
 S :1...2            ( 2.00    -0.6898)  ( 0.00     0.6884)
 P :1...2            ( 3.00    -0.2666)  ( 0.00     0.5855)

 CYCLE   10
  SDIIS (wt  1.000):  0.0008  0.9992
  DIIS coefficients:  0.0008  0.9992
 SCF Error: norm([F,P])=      0.000000000021, max([F,P])=      0.000000000015
 orbitals (Q,E):
 ---------------
 S :1...2            ( 2.00    -0.6898)  ( 0.00     0.6884)
 P :1...2            ( 3.00    -0.2666)  ( 0.00     0.5855)

 SCF CONVERGED

 CYCLE   11
1
 ***************************************************************************************************



                                                *******************
                                                *  R E S U L T S  *
                                                *******************
  
 *** Using FIT density in Focky
  SDIIS (wt  1.000):  0.0005  0.9995
  DIIS coefficients:  0.0005  0.9995
 SCF Error: norm([F,P])=      0.000000000000, max([F,P])=      0.000000000000

 Scaled ZORA Orbital Energies, per Irrep and Spin:
 =================================================
                        Occup              E (au)              E (eV)       Diff (eV) with prev. cycle
                        -----      --------------------        ------       --------------------------
 S
               1        2.000     -0.68979333234436E+00       -18.770               1.57E-13
               2        0.000      0.68835668824347E+00        18.731
 P
               1        3.000     -0.26655778219350E+00        -7.253               1.57E-13
               2        0.000      0.58549619457877E+00        15.932


 Partially Occupied:
               1 P                -0.26655778219350E+00
  
 HOMO :        1 S                -0.68979333234436E+00
 LUMO :        2 P                 0.58549619457877E+00
  


 Orbital Energies, all Irreps
 ========================================

 Irrep        no.  (spin)   Occup              E (au)                E (eV)
 ---------------------------------------------------------------------------
 S             1             2.00       -0.68979333234436E+00       -18.7702
 P             1             3.00       -0.26655778219350E+00        -7.2534
 P             2             0.00        0.58549619457877E+00        15.9322
 S             2             0.00        0.68835668824347E+00        18.7311


 Scaled ZORA Orbital Energies of the Core Orbitals:
 ==================================================

 (Note that the atoms are grouped by atomtype, see the labels, and may hence NOT be in input order)

 AtomType  Orbital  Atom                   E (au)                        E (eV)
 --------  -------  ----           --------------------        ----------------
 N           1S        1          -0.14166659762581E+02                -385.494



 =======================================
 M U L L I K E N   P O P U L A T I O N S
 =======================================
  
 The survey below gives for each atom:
 a) the total charge (Z minus electrons)
 b) the net spin polarization (nr of electrons spin-A minus spin-B)
 c) for each spin the atomic electron valence density (integrated) per L-value.

 Atom              Charge    Spin density          S         P         D         F
 ----              ------    ------------       ------    ------    ------    ------
 1 N              -0.0000                       2.0000    3.0000    0.0000    0.0000

 Populations of individual BAS functions
 ----------------------------------------
 1 N            0.0005  0.8702  1.1293  0.4947  0.4947  0.4947  0.5053  0.5053  0.5053

 Gross Charges per Atom (Z minus electrons)
 ==========================================
            -0.0000
 Net Total: -0.00000000



 =======================================================================
 Electrostatic potential at the Nuclei due to electrons and other nuclei
 =======================================================================
  
         Atom                  Potential
         ----                  ---------
     1)   N                  18.25311827
 
 
 ========================
 No memory problems found
 ========================
 
 Maximum number of active allocate calls:         319
 
 *******************************************************************************

                             A D F   E X I T
 NORMAL TERMINATION



 =================
 Timing Statistics
 =================
  
 Total Used :                     CPU=        0.58      System=        0.09     Elapsed=        0.96

 Calls  Section                     ( Mean, Percentage )
 ---------------------------------------------------------------------------------------------------
     3  ><      ................      0.00    1.39             0.00    2.24             0.00    1.43
     1  INIT    ................      0.08   13.40             0.01    9.23             0.10   10.15
     1  GEOMET  ................      0.03    4.49             0.01   12.14             0.10   10.33
     1  INPUTA  ................      0.01    1.04             0.00    1.63             0.01    1.17
     1  MAINSY  ................      0.02    3.46             0.01    8.33             0.05    5.17
     1  SYMFIT  ................      0.00    0.44             0.00    0.87             0.00    0.41
     1  CORORT  ................      0.00    0.40             0.00    0.96             0.01    0.60
     1  SYMORB  ................      0.00    0.33             0.00    0.26             0.00    0.34
     1  CLSMAT  ................      0.00    0.80             0.00    3.63             0.01    1.50
     1  ORTHON  ................      0.01    0.91             0.00    1.74             0.01    0.97
     1  GENPT   ................      0.02    3.10             0.00    1.28             0.03    3.07
     1  PTBAS   ................      0.01    1.03             0.00    4.94             0.02    1.80
    11  FOCKY   ................      0.03   52.81             0.00   22.69             0.04   40.51
    11  FOCKTR  ................      0.00    2.27             0.00    2.95             0.00    3.87
    11  SDIIS   ................      0.00    6.59             0.00   16.75             0.01   10.52
     1  COREPS  ................      0.02    4.11             0.00    2.42             0.03    3.46
     1  POPAN   ................      0.01    0.91             0.00    2.93             0.01    1.43
     1  DEBYE   ................      0.00    0.13             0.00    1.58             0.00    0.47
     1  EXIT PROCEDURE .........      0.01    2.38             0.00    3.44             0.03    2.78


 Currently Open Files (EXIT00)
 ====================

 Unit    Access Format  Status   Type       Ident (file)
 -------------------------------------------------------
   3      SEQ    FORM   TRANSP  NORMAL      LOGFILE
                                          ( logfile )

 ***************************************************************************************************
 (LOGFILE)
 <Feb04-2021> <20:24:37>  DIRAC 2019  RunTime: Feb04-2021 20:24:37  Nodes: 1  Procs: 1
 <Feb04-2021> <20:24:37>  NORMAL TERMINATION
 <Feb04-2021> <20:24:37>  END
 <Feb04-2021> <20:24:37>  ADF 2019  RunTime: Feb04-2021 20:24:37  Nodes: 1  Procs: 1
 <Feb04-2021> <20:24:37>  Hydrogen (DZ)
 <Feb04-2021> <20:24:37>  RunType   : CREATE
 <Feb04-2021> <20:24:37>  Net Charge: 0 (Nuclei minus Electrons)
 <Feb04-2021> <20:24:37>  Symmetry  : ATOM
  Coordinates
    Atom         X           Y           Z   (Angstrom)
    1.H         0.000000    0.000000    0.000000
 <Feb04-2021> <20:24:37>  >>>> CORORT
 <Feb04-2021> <20:24:37>  >>>> CLSMAT
 <Feb04-2021> <20:24:37>  >>>> ORTHON
 <Feb04-2021> <20:24:37>  >>>> GENPT
 <Feb04-2021> <20:24:37>  Block Length=  64
 <Feb04-2021> <20:24:37>  >>>> PTBAS
 <Feb04-2021> <20:24:37>  >>>> CYCLE
 <Feb04-2021> <20:24:37>              |Error|         MaxErr       Wt(A-DIIS)
 <Feb04-2021> <20:24:37>      1      0.00000000      0.00000000
 <Feb04-2021> <20:24:37>      2      0.03300193      0.03300193
 <Feb04-2021> <20:24:37>      3      0.00595445      0.00595445    100.0
 <Feb04-2021> <20:24:37>      4      0.00102040      0.00102040      0.0
 <Feb04-2021> <20:24:38>      5      0.00000144      0.00000144      0.0
 <Feb04-2021> <20:24:38>      6      0.00000000      0.00000000      0.0
 <Feb04-2021> <20:24:38>  SCF converged
 <Feb04-2021> <20:24:38>      7      0.00000000      0.00000000      0.0
 <Feb04-2021> <20:24:38>  >>>> POPAN
 <Feb04-2021> <20:24:38>  >>>> DEBYE
 <Feb04-2021> <20:24:38>  NORMAL TERMINATION
 <Feb04-2021> <20:24:38>  END
 <Feb04-2021> <20:24:38>  DIRAC 2019  RunTime: Feb04-2021 20:24:38  Nodes: 1  Procs: 1
 <Feb04-2021> <20:24:38>  NORMAL TERMINATION
 <Feb04-2021> <20:24:38>  END
 <Feb04-2021> <20:24:38>  ADF 2019  RunTime: Feb04-2021 20:24:38  Nodes: 1  Procs: 1
 <Feb04-2021> <20:24:38>  Nitrogen (DZ, 1s frozen)
 <Feb04-2021> <20:24:38>  RunType   : CREATE
 <Feb04-2021> <20:24:38>  Net Charge: 0 (Nuclei minus Electrons)
 <Feb04-2021> <20:24:38>  Symmetry  : ATOM
  Coordinates
    Atom         X           Y           Z   (Angstrom)
    1.N         0.000000    0.000000    0.000000
 <Feb04-2021> <20:24:38>  >>>> CORORT
 <Feb04-2021> <20:24:38>  >>>> CLSMAT
 <Feb04-2021> <20:24:38>  >>>> ORTHON
 <Feb04-2021> <20:24:38>  >>>> GENPT
 <Feb04-2021> <20:24:38>  Block Length=  68
 <Feb04-2021> <20:24:38>  >>>> PTBAS
 <Feb04-2021> <20:24:38>  >>>> CYCLE
 <Feb04-2021> <20:24:39>              |Error|         MaxErr       Wt(A-DIIS)
 <Feb04-2021> <20:24:39>      1      0.00000000      0.00000000
 <Feb04-2021> <20:24:39>      2      1.54967398      1.25810192
 <Feb04-2021> <20:24:39>      3      1.36024905      1.04805016    100.0
 <Feb04-2021> <20:24:39>      4      0.32592592      0.22822670    100.0
 <Feb04-2021> <20:24:39>      5      0.31211903      0.22183515    100.0
 <Feb04-2021> <20:24:39>      6      0.01162794      0.00811445      7.2
 <Feb04-2021> <20:24:39>      7      0.00089556      0.00063651      0.0
 <Feb04-2021> <20:24:39>      8      0.00000743      0.00000524      0.0
 <Feb04-2021> <20:24:39>      9      0.00000003      0.00000002      0.0
 <Feb04-2021> <20:24:39>     10      0.00000000      0.00000000      0.0
 <Feb04-2021> <20:24:39>  SCF converged
 <Feb04-2021> <20:24:39>     11      0.00000000      0.00000000      0.0
 <Feb04-2021> <20:24:39>  >>>> POPAN
 <Feb04-2021> <20:24:39>  >>>> DEBYE
 <Feb04-2021> <20:24:39>  NORMAL TERMINATION
 <Feb04-2021> <20:24:39>  END

 *******************************************************************************
 *                                                                             *
 *  -------------------------------------                                      *
 *   Amsterdam Density Functional  (ADF)         2019                          *
 *  -------------------------------------                                      *
 *                                               r74351 2019-04-25             *
 *                                                                             *
 *                                                                             *
 *                            =====================                            *
 *                            |                   |                            *
 *                            |     D I R A C     |                            *
 *                            |                   |                            *
 *                            =====================                            *
 *                                                                             *
 *                                                                             *
 *   Online information and documentation:  https://www.scm.com/support/       *
 *   E-mail:  support@scm.com   info@scm.com                                   *
 *                                                                             *
 *   Scientific publications using ADF results must be properly referenced     *
 *   See the User Manuals (or the web site) for recommended citations          *
 *   The terms and conditions of the End User License Agreement apply to       *
 *   the use of ADF, https://www.scm.com/license-terms/                        *
 *                                                                             *
 **********************  x86_64_linux_intel / intelmpi  ************************
 
 Licensed to: Dr. Emilie Guidez / UC Denver / Denver / CO / USA
 SCM User ID: u20218
  
 DIRAC 2019  RunTime: Feb04-2021 20:24:39  Nodes: 1  Procs: 1

 Temporary files are created in /home/chemistry/limjae/scr/kid_0.70131845

1
 GOLD ATOM 4d CORE RELATIVISTIC, Point Nuc, A and c from libt
 N J RN H ZN XION ANUC CLIGHT
 5000   22100.00000000197.36710137 79.00000000  0.00000000  196.966551  0.1370360E+03
  PH   PHI     EPS        DEL        DELRVR
  0.30  0.30     2500.00  0.00001000  0.00001000
 IDIRC  NC1  NDEBU NPRIN  IPUN IRCOR IWCOR
   1   300     0     0     0     0    14
   XALPHA      XLATTER      RNUC
  0.70000000  0.00000000  0.00000000 Point Charge
   XN   XL   XJ      XE          XZ      XDELL
  1.0  0.0  0.5   -2600.000       2.000     0.00000
  2.0  0.0  0.5    -425.000       2.000     0.00000
  2.0  1.0  0.5    -425.000       2.000     0.00000
  2.0  1.0  1.5    -425.000       4.000     0.00000
  3.0  0.0  0.5    -100.000       2.000     0.00000
  3.0  1.0  0.5    -100.000       2.000     0.00000
  3.0  1.0  1.5    -100.000       4.000     0.00000
  3.0  2.0  1.5     -80.000       4.000     0.00000
  3.0  2.0  2.5     -80.000       6.000     0.00000
  4.0  0.0  0.5     -22.000       2.000     0.00000
  4.0  1.0  0.5     -20.000       2.000     0.00000
  4.0  1.0  1.5     -20.000       4.000     0.00000
  4.0  2.0  1.5     -11.000       4.000     0.00000
  4.0  2.0  2.5     -11.000       6.000     0.00000
  4.0  3.0  2.5      -1.000       6.000     0.00000
  4.0  3.0  3.5      -1.000       8.000     0.00000
  5.0  0.0  0.5      -3.000       2.000     0.00000
  5.0  1.0  0.5      -2.200       2.000     0.00000
  5.0  1.0  1.5      -2.200       4.000     0.00000
  5.0  2.0  1.5      -0.500       4.000     0.00000
  5.0  2.0  2.5      -0.500       6.000     0.00000
  6.0  0.0  0.5      -0.200       1.000     0.00000
 ICORP=  0  NPCL=  0  DEMP=0.00  PEPS=0.000000
 R(1)=  0.1000000E-08 D=  0.1005080E+01 RNUC=  0.0000000E+00
 converged at cycle   60  DENSITY AVERAGING    0.0786
  MAXIMUM ERROR IN R.V(R) IS   0.38523360E-05
 Q,EY,EV,EZ,ESUM,ETOT,RHO  0.790000E+02 -0.485545E+03 -0.336404E+05 -0.479937E+05 -0.117486E+05 -0.190466E+05  0.196298E-08


 DIRAC CALCULATION
1                    GOLD ATOM 4d CORE RELATIVISTIC, Point Nuc, A and c from libtc


 EXCHANGE COEFFICIENT=  0.7000000           TAIL CORRECTION=  0.           NUCLEAR RADIUS=  0.000E+00
0                       ORBITAL    N    L    J     ELECTRONS     EIGENVALUE                DELTA OF EIGENV.

                          1S1/2  1.0  0.0  0.5     2.000       -0.2963119E+04                 0.3731460E-04
                          2S1/2  2.0  0.0  0.5     2.000       -0.5226069E+03                 0.3102938E-04
                          2P1/2  2.0  1.0  0.5     2.000       -0.5013071E+03                 0.3249986E-04
                          2P3/2  2.0  1.0  1.5     4.000       -0.4338328E+03                 0.3150316E-04
                          3S1/2  3.0  0.0  0.5     2.000       -0.1233461E+03                 0.2017137E-04
                          3P1/2  3.0  1.0  0.5     2.000       -0.1137481E+03                 0.2099254E-04
                          3P3/2  3.0  1.0  1.5     4.000       -0.9885554E+02                 0.1984570E-04
                          3D3/2  3.0  2.0  1.5     4.000       -0.8287610E+02                 0.2174809E-04
                          3D5/2  3.0  2.0  2.5     6.000       -0.7967162E+02                 0.2135379E-04
                          4S1/2  4.0  0.0  0.5     2.000       -0.2673972E+02                 0.1054160E-04
                          4P1/2  4.0  1.0  0.5     2.000       -0.2264484E+02                 0.1056903E-04
                          4P3/2  4.0  1.0  1.5     4.000       -0.1906321E+02                 0.9669504E-05
                          4D3/2  4.0  2.0  1.5     4.000       -0.1235180E+02                 0.9615342E-05
                          4D5/2  4.0  2.0  2.5     6.000       -0.1168427E+02                 0.9341815E-05
                          4F5/2  4.0  3.0  2.5     6.000       -0.3062221E+01                 0.8653601E-05
                          4F7/2  4.0  3.0  3.5     8.000       -0.2921300E+01                 0.8510675E-05
                          5S1/2  5.0  0.0  0.5     2.000       -0.3963776E+01                 0.3355907E-05
                          5P1/2  5.0  1.0  0.5     2.000       -0.2629660E+01                 0.2984355E-05
                          5P3/2  5.0  1.0  1.5     4.000       -0.2015087E+01                 0.2530381E-05
                          5D3/2  5.0  2.0  1.5     4.000       -0.2662248E+00                 0.1434098E-05
                          5D5/2  5.0  2.0  2.5     6.000       -0.2094938E+00                 0.1305568E-05
                          6S1/2  6.0  0.0  0.5     1.000       -0.1940684E+00                 0.3484321E-06


                                        NUCLEAR CHARGE=   79.000000
                            INTEGRAL OF CHARGE DENSITY=   79.000000
                           SUM OF THE ORBITAL ENERGIES= -11748.5839
                                          TOTAL ENERGY= -19046.6065
                                        KINETIC ENERGY=  21891.8398
                             NUCLEAR ATTRACTION ENERGY= -47993.6963
                             ELECTRON REPULSION ENERGY=   7419.4090
                                       EXCHANGE ENERGY=   -364.1591

 *******************************************************************************

                             D I R A C   E X I T
 NORMAL TERMINATION



 =================
 Timing Statistics
 =================
  
 Total Used :                     CPU=        0.60      System=        0.02     Elapsed=        0.73

 Calls  Section                     ( Mean, Percentage )
 ---------------------------------------------------------------------------------------------------
     2  ><      ................      0.00    0.00             0.00    0.03             0.00    0.00
     1  EXIT PROCEDURE .........      0.60  100.00             0.02   99.97             0.73  100.00


 Currently Open Files (EXIT00)
 ====================

 Unit    Access Format  Status   Type       Ident (file)
 -------------------------------------------------------
   3      SEQ    FORM   TRANSP  NORMAL      LOGFILE
                                          ( logfile )
 
Create Au   file=DZ-Au.4d
XC
 GGA PBE
End
relativistic ZORA
Corepotentials t12.rel
End

 *******************************************************************************
 *                                                                             *
 *  -------------------------------------                                      *
 *   Amsterdam Density Functional  (ADF)         2019                          *
 *  -------------------------------------                                      *
 *                                               r74351 2019-04-25             *
 *                                                                             *
 *                                                                             *
 *                              =================                              *
 *                              |               |                              *
 *                              |     A D F     |                              *
 *                              |               |                              *
 *                              =================                              *
 *                                                                             *
 *                                                                             *
 *   Online information and documentation:  https://www.scm.com/support/       *
 *   E-mail:  support@scm.com   info@scm.com                                   *
 *                                                                             *
 *   Scientific publications using ADF results must be properly referenced     *
 *   See the User Manuals (or the web site) for recommended citations          *
 *   The terms and conditions of the End User License Agreement apply to       *
 *   the use of ADF, https://www.scm.com/license-terms/                        *
 *                                                                             *
 **********************  x86_64_linux_intel / intelmpi  ************************
 
 Licensed to: Dr. Emilie Guidez / UC Denver / Denver / CO / USA
 SCM User ID: u20218
  
 ADF 2019  RunTime: Feb04-2021 20:24:40  Nodes: 1  Procs: 1

 Temporary files are created in /home/chemistry/limjae/scr/kid_0.1801271852

 Gold (DZ, 4d frozen)



 ===========================
 A T T A C H E D   F I L E S
 ===========================
  
 CREATE - Data File:    DZ-Au.4d
                        Gold (DZ, 4d frozen)
 Core Potentials:
         file : t12.rel



 ===============================
 M O D E L   P A R A M E T E R S
 ===============================
  
 DENSITY FUNCTIONAL POTENTIAL (scf)
    LDA:                               PW92                                    == Not Default ==
    Gradient Corrections:              PBEc PBEx                               == Not Default ==

 SPIN  (restricted / unrestr.)
    Molecule:                          Restricted                               

 OTHER ASPECTS
    Relativistic Corrections:          scalar (ZORA,MAPA)                      == Not Default ==

    Nuclear Charge Density Model:      Point Charge Nuclei                      
    Core Treatment:                    Frozen Orbital(s)                        

    Hyperfine or Zeeman Interaction:   ---                                      



 =====================================
 S Y M M E T R Y ,   E L E C T R O N S
 =====================================
  
 Symmetry: ATOM

 Irreducible Representations, including subspecies
 -------------------------------------------------
 S
 P:x  P:y  P:z
 D:z2  D:x2-y2  D:xy  D:xz  D:yz
 F:z3  F:z  F:xyz  F:z2x  F:z2y  F:x  F:y


 Configuration of Valence Electrons
 ==================================

          Occupation Numbers
          -------------------------------------------------
 S        2 1
 P        6
 D        10
 F        14
          -------------------------------------------------

 Total:   33

 Net Charge: 0 (Nuclei minus Electrons)

 Preset values for MO occupations will be applied through SCF cycle no. 1000000
 Thereafter, the program will assign electrons to MOs that are spatially
 similar to the occupied MOs in a "reference" cycle ("KeepOrbitals").
 The reference cycle is always the PREVIOUS cycle: it will evolve with
 the SCF procedure.



 ================================
 (Slater-type)  F U N C T I O N S  ***  (Basis and Fit)  ***
 ================================
  

 Atom Type    1  (Au)
 ==============

 Valence Basis Sets:  21
 -----------------------
   1 S   57.000000
   2 S   36.650000
   3 S   21.050000
   4 S   12.400000
   2 P   39.650000
   3 P   17.950000
   4 P   12.550000
   3 D   22.100000
   4 D   11.200000
   5 S    7.000000
   5 S    4.600000
   6 S    2.850000
   6 S    1.510000
   5 P    6.000000
   5 P    3.700000
   5 D    4.350000
   5 D    2.000000
   4 F   16.150000
   4 F    8.900000
   4 F    4.900000
   6 P    1.950000

 Frozen Core Shells
 ------------------
    S:  4
    P:  3
    D:  2


 BAS: List of all Elementary Cartesian Basis Functions
 =====================================================

 The numbering in the list below (to the right of the function characteristics) is referred
 to in print-outs of MO eigenvectors and Mulliken populations in the BAS representation
 (as contrasted to the SFO representation).

 Notes:
 1. The functions are characterized by a polynomial prefactor (powers of x,y,z and r) and
    an exponential decay factor alpha.
 2. Since the basis sets are specific for an atom TYPE, the individual functions occur on
    all atoms of that type.
 3. The word 'Core' in the left margin signals that it is a Core Function (CF) : not a
    degree of freedom in the valence set, but only used to ensure orthogonalization of
    the other valence basis functions on the frozen Core Orbitals.


 (power of) X  Y  Z  R     Alpha  on Atom
            ==========     =====     ==========

 Au                                   1
                                  ---------------------------------------------------------------------------
    Core    0  0  0  0    57.000      1
    Core    0  0  0  1    36.650      2
    Core    0  0  0  2    21.050      3
    Core    0  0  0  3    12.400      4
    Core    1  0  0  0    39.650      5
    Core    0  1  0  0    39.650      6
    Core    0  0  1  0    39.650      7
    Core    1  0  0  1    17.950      8
    Core    0  1  0  1    17.950      9
    Core    0  0  1  1    17.950     10
    Core    1  0  0  2    12.550     11
    Core    0  1  0  2    12.550     12
    Core    0  0  1  2    12.550     13
    Core    2  0  0  0    22.100     14
    Core    1  1  0  0    22.100     15
    Core    1  0  1  0    22.100     16
    Core    0  2  0  0    22.100     17
    Core    0  1  1  0    22.100     18
    Core    0  0  2  0    22.100     19
    Core    2  0  0  1    11.200     20
    Core    1  1  0  1    11.200     21
    Core    1  0  1  1    11.200     22
    Core    0  2  0  1    11.200     23
    Core    0  1  1  1    11.200     24
    Core    0  0  2  1    11.200     25
            0  0  0  4     7.000     26
            0  0  0  4     4.600     27
            0  0  0  5     2.850     28
            0  0  0  5     1.510     29
            1  0  0  3     6.000     30
            0  1  0  3     6.000     31
            0  0  1  3     6.000     32
            1  0  0  3     3.700     33
            0  1  0  3     3.700     34
            0  0  1  3     3.700     35
            2  0  0  2     4.350     36
            1  1  0  2     4.350     37
            1  0  1  2     4.350     38
            0  2  0  2     4.350     39
            0  1  1  2     4.350     40
            0  0  2  2     4.350     41
            2  0  0  2     2.000     42
            1  1  0  2     2.000     43
            1  0  1  2     2.000     44
            0  2  0  2     2.000     45
            0  1  1  2     2.000     46
            0  0  2  2     2.000     47
            3  0  0  0    16.150     48
            2  1  0  0    16.150     49
            2  0  1  0    16.150     50
            1  2  0  0    16.150     51
            1  1  1  0    16.150     52
            1  0  2  0    16.150     53
            0  3  0  0    16.150     54
            0  2  1  0    16.150     55
            0  1  2  0    16.150     56
            0  0  3  0    16.150     57
            3  0  0  0     8.900     58
            2  1  0  0     8.900     59
            2  0  1  0     8.900     60
            1  2  0  0     8.900     61
            1  1  1  0     8.900     62
            1  0  2  0     8.900     63
            0  3  0  0     8.900     64
            0  2  1  0     8.900     65
            0  1  2  0     8.900     66
            0  0  3  0     8.900     67
            3  0  0  0     4.900     68
            2  1  0  0     4.900     69
            2  0  1  0     4.900     70
            1  2  0  0     4.900     71
            1  1  1  0     4.900     72
            1  0  2  0     4.900     73
            0  3  0  0     4.900     74
            0  2  1  0     4.900     75
            0  1  2  0     4.900     76
            0  0  3  0     4.900     77
            1  0  0  4     1.950     78
            0  1  0  4     1.950     79
            0  0  1  4     1.950     80

 Total number of charge fitting functions (nprimf)       327
 Total number of Cartesian basis functions (naos)         80
 Total number of Cartesian core functions  (ncos)         25



 BAS: List of all Elementary Cartesian Basis Functions
 =====================================================

 The numbering in the list below (to the right of the function characteristics) is referred
 to in print-outs of MO eigenvectors and Mulliken populations in the BAS representation
 (as contrasted to the SFO representation).

 Notes:
 1. The functions are characterized by a polynomial prefactor (powers of x,y,z and r) and
    an exponential decay factor alpha.
 2. Since the basis sets are specific for an atom TYPE, the individual functions occur on
    all atoms of that type.
 3. The word 'Core' in the left margin signals that it is a Core Function (CF) : not a
    degree of freedom in the valence set, but only used to ensure orthogonalization of
    the other valence basis functions on the frozen Core Orbitals.


 (power of) X  Y  Z  R     Alpha  on Atom
            ==========     =====     ==========

 Au                                   1
                                  ---------------------------------------------------------------------------
    Core    0  0  0  0    57.000      1
    Core    0  0  0  1    36.650      2
    Core    0  0  0  2    21.050      3
    Core    0  0  0  3    12.400      4
    Core    1  0  0  0    39.650      5
    Core    0  1  0  0    39.650      6
    Core    0  0  1  0    39.650      7
    Core    1  0  0  1    17.950      8
    Core    0  1  0  1    17.950      9
    Core    0  0  1  1    17.950     10
    Core    1  0  0  2    12.550     11
    Core    0  1  0  2    12.550     12
    Core    0  0  1  2    12.550     13
    Core    2  0  0  0    22.100     14
    Core    1  1  0  0    22.100     15
    Core    1  0  1  0    22.100     16
    Core    0  2  0  0    22.100     17
    Core    0  1  1  0    22.100     18
    Core    0  0  2  0    22.100     19
    Core    2  0  0  1    11.200     20
    Core    1  1  0  1    11.200     21
    Core    1  0  1  1    11.200     22
    Core    0  2  0  1    11.200     23
    Core    0  1  1  1    11.200     24
    Core    0  0  2  1    11.200     25
            0  0  0  4     7.000     26
            0  0  0  4     4.600     27
            0  0  0  5     2.850     28
            0  0  0  5     1.510     29
            1  0  0  3     6.000     30
            0  1  0  3     6.000     31
            0  0  1  3     6.000     32
            1  0  0  3     3.700     33
            0  1  0  3     3.700     34
            0  0  1  3     3.700     35
            2  0  0  2     4.350     36
            1  1  0  2     4.350     37
            1  0  1  2     4.350     38
            0  2  0  2     4.350     39
            0  1  1  2     4.350     40
            0  0  2  2     4.350     41
            2  0  0  2     2.000     42
            1  1  0  2     2.000     43
            1  0  1  2     2.000     44
            0  2  0  2     2.000     45
            0  1  1  2     2.000     46
            0  0  2  2     2.000     47
            3  0  0  0    16.150     48
            2  1  0  0    16.150     49
            2  0  1  0    16.150     50
            1  2  0  0    16.150     51
            1  1  1  0    16.150     52
            1  0  2  0    16.150     53
            0  3  0  0    16.150     54
            0  2  1  0    16.150     55
            0  1  2  0    16.150     56
            0  0  3  0    16.150     57
            3  0  0  0     8.900     58
            2  1  0  0     8.900     59
            2  0  1  0     8.900     60
            1  2  0  0     8.900     61
            1  1  1  0     8.900     62
            1  0  2  0     8.900     63
            0  3  0  0     8.900     64
            0  2  1  0     8.900     65
            0  1  2  0     8.900     66
            0  0  3  0     8.900     67
            3  0  0  0     4.900     68
            2  1  0  0     4.900     69
            2  0  1  0     4.900     70
            1  2  0  0     4.900     71
            1  1  1  0     4.900     72
            1  0  2  0     4.900     73
            0  3  0  0     4.900     74
            0  2  1  0     4.900     75
            0  1  2  0     4.900     76
            0  0  3  0     4.900     77
            1  0  0  4     1.950     78
            0  1  0  4     1.950     79
            0  0  1  4     1.950     80
1
 ***************************************************************************************************



                                              ***********************
                                              *  T E C H N I C A L  *
                                              ***********************
  



 =============================================================
 P A R A L L E L I Z A T I O N  and  V E C T O R I Z A T I O N
 =============================================================
  
 Nr of parallel processes:                                1
 Maximum vector length in NumInt loops:                 128



 =====================
 S C F   U P D A T E S
 =====================
  
 Max. nr. of cycles:                               300
 Convergence criterion:                              0.0000000100
   secondary criterion:                              0.0000000100

 Mix parameter (when DIIS does not apply):           0.2000000000
 Special mix parameter for the first cycle:          1.0000000000
 Mixed ADIIS+SDIIS will be used                  
    Max number of expansion vectors:                10
    Pure ADIIS when Max([F,P]) is above              0.1000000000
    Pure SDIIS when Max([F,P]) is below              0.0010000000
 Automatic ElectronSmearing (in case of problematic SCF convergence) disabled



 =================
 P R E C I S I O N  ***  (General: NumInt, NeglectFunctionTails, ...)  ***
 =================
  

 NumInt:           Target precision:                12.0000000000
 -------           Initial precision:               10.0000000000
                   Min. precision (optimization):   10.0000000000

 Neglect Functions:          Basis functions:        0.1000000000E-13
 ------------------          Fit functions:          0.1000000000E-13



 ===========================
 L I N E A R   S C A L I N G
 ===========================
  

 Cut-off radii density fit:                        0.1000000000E-97
 Overlap cut-off criterion AO matrix elements:     0.1000000000E-97
 Cut-offs for Coulomb potential and fitted density:0.1000000000E-97
 Cut-off criterion for Coulomb multipole terms:    0.1000000000E-97
 Progressive Convergence parameter:                 0.000000000    
1
 ***************************************************************************************************



                                            ***************************
                                            *  C O M P U T A T I O N  *
                                            ***************************
  

 Number of elements of the density matrix on this node (used, total):      3240      3240



 ===========================================
 Numerical Integration : Fuzzy Cells (Becke)
 ===========================================
  
 Becke grid quality: VERYGOOD       
  
 Lebedev angular grid order:             min:  13 max:  41
 Nr. of radial points:                   min: 123 max: 123

 Total nr. of points:        123
 Nr. of blocks:                1
 Block length:               123
 Nr. of dummy points:          0


 Test of Precision of the Numerical Integration Grid
 ===================================================

 Integral of the Total Core Density:                  45.99999991226612
 Relative Error:                                      -1.907E-09



 ========================
 Density Fitting (zlmFit)
 ========================
  
 ZlmFit Fit Quality: VERYGOOD       
  
 Max L-expansion:                        min:   0 max:   0
 Nr. of radial interpolation points:     min: 270 max: 270



 =====
 S C F  ***  ScaSCF  ***
 =====
  

 CYCLE    1
 SCF Error: norm([F,P])=      0.000000000000, max([F,P])=      0.000000000000
 orbitals (Q,E):
 ---------------
 S :1...4            ( 2.00   -36.7762)  ( 1.00   -21.6820)  ( 0.00   -12.9085)  ( 0.00    -7.1191)
 P :1...3            ( 6.00   -33.0866)  ( 0.00   -18.4007)  ( 0.00    -9.4584)
 D :1...2            (10.00   -25.1484)  ( 0.00   -11.3803)
[...]
 <Feb04-2021> <20:24:42>  RunType   : CREATE
 <Feb04-2021> <20:24:42>  Net Charge: 0 (Nuclei minus Electrons)
 <Feb04-2021> <20:24:42>  Symmetry  : ATOM
  Coordinates
    Atom         X           Y           Z   (Angstrom)
    1.O         0.000000    0.000000    0.000000
 <Feb04-2021> <20:24:42>  >>>> CORORT
 <Feb04-2021> <20:24:42>  >>>> CLSMAT
 <Feb04-2021> <20:24:43>  >>>> ORTHON
 <Feb04-2021> <20:24:43>  >>>> GENPT
 <Feb04-2021> <20:24:43>  Block Length=  68
 <Feb04-2021> <20:24:43>  >>>> PTBAS
 <Feb04-2021> <20:24:43>  >>>> CYCLE
 <Feb04-2021> <20:24:43>              |Error|         MaxErr       Wt(A-DIIS)
 <Feb04-2021> <20:24:43>      1      0.00000000      0.00000000
 <Feb04-2021> <20:24:43>      2      2.51022395      1.83694100
 <Feb04-2021> <20:24:43>      3      2.38195714      1.61935802    100.0
 <Feb04-2021> <20:24:43>      4      0.46758430      0.27634710    100.0
 <Feb04-2021> <20:24:43>      5      0.50410652      0.30498859    100.0
 <Feb04-2021> <20:24:43>      6      0.01247625      0.00764533      6.7
 <Feb04-2021> <20:24:43>      7      0.00085022      0.00051605      0.0
 <Feb04-2021> <20:24:43>      8      0.00000244      0.00000146      0.0
 <Feb04-2021> <20:24:43>      9      0.00000001      0.00000000      0.0
 <Feb04-2021> <20:24:43>  SCF converged
 <Feb04-2021> <20:24:43>     10      0.00000000      0.00000000      0.0
 <Feb04-2021> <20:24:43>  >>>> POPAN
 <Feb04-2021> <20:24:43>  >>>> DEBYE
 <Feb04-2021> <20:24:43>  NORMAL TERMINATION
 <Feb04-2021> <20:24:43>  END
 <Feb04-2021> <20:24:43>  DIRAC 2019  RunTime: Feb04-2021 20:24:43  Nodes: 1  Procs: 1
 <Feb04-2021> <20:24:44>  NORMAL TERMINATION
 <Feb04-2021> <20:24:44>  END
 <Feb04-2021> <20:24:44>  ADF 2019  RunTime: Feb04-2021 20:24:44  Nodes: 1  Procs: 1
 <Feb04-2021> <20:24:44>  Carbon (DZ, 1s frozen)
 <Feb04-2021> <20:24:44>  RunType   : CREATE
 <Feb04-2021> <20:24:44>  Net Charge: 0 (Nuclei minus Electrons)
 <Feb04-2021> <20:24:44>  Symmetry  : ATOM
  Coordinates
    Atom         X           Y           Z   (Angstrom)
    1.C         0.000000    0.000000    0.000000
 <Feb04-2021> <20:24:44>  >>>> CORORT
 <Feb04-2021> <20:24:44>  >>>> CLSMAT
 <Feb04-2021> <20:24:44>  >>>> ORTHON
 <Feb04-2021> <20:24:44>  >>>> GENPT
 <Feb04-2021> <20:24:44>  Block Length=  68
 <Feb04-2021> <20:24:44>  >>>> PTBAS
 <Feb04-2021> <20:24:44>  >>>> CYCLE
 <Feb04-2021> <20:24:44>              |Error|         MaxErr       Wt(A-DIIS)
 <Feb04-2021> <20:24:44>      1      0.00000000      0.00000000
 <Feb04-2021> <20:24:44>      2      0.96385221      0.85255436
 <Feb04-2021> <20:24:44>      3      0.69816270      0.60759186    100.0
 <Feb04-2021> <20:24:44>      4      0.25244702      0.20719292    100.0
 <Feb04-2021> <20:24:44>      5      0.19639955      0.16352478    100.0
 <Feb04-2021> <20:24:44>      6      0.03180040      0.02617408     25.4
 <Feb04-2021> <20:24:44>      7      0.00638036      0.00527666      4.3
 <Feb04-2021> <20:24:44>      8      0.00018258      0.00015050      0.0
 <Feb04-2021> <20:24:44>      9      0.00000052      0.00000043      0.0
 <Feb04-2021> <20:24:44>     10      0.00000000      0.00000000      0.0
 <Feb04-2021> <20:24:44>  SCF converged
 <Feb04-2021> <20:24:44>     11      0.00000000      0.00000000      0.0
 <Feb04-2021> <20:24:44>  >>>> POPAN
 <Feb04-2021> <20:24:44>  >>>> DEBYE
 <Feb04-2021> <20:24:45>  NORMAL TERMINATION
 <Feb04-2021> <20:24:45>  END
 <Feb04-2021> <20:24:45>  DIRAC 2019  RunTime: Feb04-2021 20:24:45  Nodes: 1  Procs: 1
 <Feb04-2021> <20:24:45>  NORMAL TERMINATION
 <Feb04-2021> <20:24:45>  END
 <Feb04-2021> <20:24:45>  ADF 2019  RunTime: Feb04-2021 20:24:45  Nodes: 1  Procs: 1
 <Feb04-2021> <20:24:45>  Sulphur (DZ, 1s frozen)
 <Feb04-2021> <20:24:45>  RunType   : CREATE
 <Feb04-2021> <20:24:45>  Net Charge: 0 (Nuclei minus Electrons)
 <Feb04-2021> <20:24:45>  Symmetry  : ATOM
  Coordinates
    Atom         X           Y           Z   (Angstrom)
    1.S         0.000000    0.000000    0.000000
 <Feb04-2021> <20:24:45>  >>>> CORORT
 <Feb04-2021> <20:24:45>  >>>> CLSMAT
 <Feb04-2021> <20:24:45>  >>>> ORTHON
 <Feb04-2021> <20:24:45>  >>>> GENPT
 <Feb04-2021> <20:24:46>  Block Length=  81
 <Feb04-2021> <20:24:46>  >>>> PTBAS
 <Feb04-2021> <20:24:46>  >>>> CYCLE
 <Feb04-2021> <20:24:46>              |Error|         MaxErr       Wt(A-DIIS)
 <Feb04-2021> <20:24:46>      1      0.00000000      0.00000000
 <Feb04-2021> <20:24:46>      2     21.51261243      7.94990220    100.0
 <Feb04-2021> <20:24:46>      3      8.52424195      2.62505450    100.0
 <Feb04-2021> <20:24:46>      4      4.38544525      1.60446246    100.0
 <Feb04-2021> <20:24:46>      5      1.43256362      0.55140611    100.0
 <Feb04-2021> <20:24:46>      6      0.89172576      0.34614537    100.0
 <Feb04-2021> <20:24:46>      7      0.16625992      0.07286926     72.6
 <Feb04-2021> <20:24:46>      8      0.10006764      0.04307754     42.5
 <Feb04-2021> <20:24:46>      9      0.01425650      0.00614423      5.2
 <Feb04-2021> <20:24:46>     10      0.00065307      0.00028041      0.0
 <Feb04-2021> <20:24:46>     11      0.00000094      0.00000039      0.0
 <Feb04-2021> <20:24:46>     12      0.00000001      0.00000000      0.0
 <Feb04-2021> <20:24:46>  SCF converged
 <Feb04-2021> <20:24:46>     13      0.00000000      0.00000000      0.0
 <Feb04-2021> <20:24:46>  >>>> POPAN
 <Feb04-2021> <20:24:46>  >>>> DEBYE
 <Feb04-2021> <20:24:46>  NORMAL TERMINATION
 <Feb04-2021> <20:24:46>  END
 <Feb04-2021> <20:24:47>  ADF 2019  RunTime: Feb04-2021 20:24:47  Nodes: 1  Procs: 1
 <Feb04-2021> <20:24:47>  Au25 + Thiol + CYST compounds.
 <Feb04-2021> <20:24:47>  RunType   : SINGLE POINT
 <Feb04-2021> <20:24:47>  WARNING: Restricted Open-Shell calculation, Unrestricted setup may be needed
 <Feb04-2021> <20:24:47>  Net Charge: 0 (Nuclei minus Electrons)
 <Feb04-2021> <20:24:47>  Symmetry  : NOSYM
 <Feb04-2021> <20:24:47>  >>>> FRAGM
  Coordinates
    Atom         X           Y           Z   (Angstrom)
    1.Au        9.799673   10.692592   10.282808
    2.Au        9.381415   10.587640   13.113372
    3.Au       12.128087   10.752515   11.929731
    4.Au       10.386122   13.008142   11.793287
    5.Au       10.572244    8.272554   11.590087
    6.Au        7.523603   12.058319   11.220947
    7.Au        7.670004    9.124245   11.364275
    8.Au       11.895344   12.235213    9.102028
    9.Au       12.116310    9.302562    9.390685
   10.Au        8.976421   13.056697    8.926474
   11.Au        7.464259   10.530245    8.653852
   12.Au        9.273774    8.322704    8.824460
   13.Au       10.187497   10.746448    7.438891
   14.Au        6.402265   10.560155   13.712574
   15.Au        8.468378    7.846121   14.025976
   16.Au       10.825247   13.386774    6.253996
   17.Au       13.089699   10.878367    6.672871
   18.Au       13.499024    7.743816   11.643981
   19.Au       11.453602    6.364070    9.478820
   20.Au        8.207670   14.968259   11.037672
   21.Au        5.929072   13.277828    8.977109
   22.Au       13.336118   13.479263   11.666149
   23.Au       11.776392   12.228952   14.482928
   24.Au        6.332928    7.782094    8.966356
   25.Au        7.832255    8.805456    6.214515
   26.S         9.969786    6.243320   12.974693
   27.S         6.990943    9.053066   15.550708
   28.S         5.321337   12.393560   12.493487
   29.S        14.354958    9.369884    8.131273
   30.S         9.268916   14.969038    7.273581
   31.S        12.268099   12.135005    4.726200
   32.S         9.873272    6.184603    7.573336
   33.S        14.288774    9.744470   12.836601
   34.S        13.187151    5.402721   10.951143
   35.S         5.470281   11.487146    7.388636
   36.S        10.346296   15.535062   12.193360
   37.S         5.882127   15.325704   10.304657
   38.S         9.932915   11.048023   15.565698
   39.S        13.474881   14.196421    9.332202
   40.S        13.940270   13.282987   14.027723
   41.S         9.725260    9.846443    5.077731
   42.S         6.257051    7.008686   11.305670
   43.S         5.560518    7.945839    6.633346
   44.C         8.622403    4.807138    8.111117
   45.C         8.572085    3.703277    7.024880
   46.H         7.644604    5.296634    8.228912
   47.H         8.944165    4.402594    9.082164
   48.N         7.481783    2.759301    7.241120
   49.H         9.540166    3.171375    7.002119
   50.H         8.434229    4.168197    6.032887
   51.C        14.621685    5.067532    9.684707
   52.C        14.104011    4.447618    8.364464
   53.H        15.311860    4.386595   10.209524
   54.H        15.132147    6.016774    9.487239
   55.N        15.139513    4.445716    7.339065
   56.H        13.249548    5.054478    8.012900
   57.H        13.704625    3.435315    8.573310
   58.C        15.586106   10.363190   11.555271
   59.C        16.587569    9.256322   11.188996
   60.H        16.097649   11.222940   12.011947
   61.H        15.039219   10.682993   10.661326
   62.N        17.462175    9.740709   10.110966
   63.H        16.014339    8.342754   10.917229
   64.H        17.205538    9.009066   12.068233
   65.C         6.279714   12.218623    5.773668
   66.C         5.890407   11.374376    4.544036
   67.H         7.367094   12.217020    5.925918
   68.H         5.915436   13.252910    5.681105
   69.N         6.623323   11.771834    3.337275
   70.H         4.806881   11.459120    4.358154
   71.H         6.116267   10.313669    4.740990
   72.C         6.051682   16.672000    8.927245
   73.C         4.736948   16.812078    8.133832
   74.H         6.875102   16.373546    8.264117
   75.H         6.305339   17.609197    9.447468
   76.N         4.807738   17.850759    7.101833
   77.H         3.905579   17.050522    8.818289
   78.H         4.499304   15.847858    7.652456
   79.C         9.624430   15.761501   13.968653
   80.C         8.419794   16.719773   13.982613
   81.H        10.443102   16.155261   14.590571
   82.H         9.335264   14.770748   14.334082
   83.N         7.803158   16.729245   15.329094
   84.H         7.700030   16.388969   13.207692
   85.H         8.755988   17.732128   13.699481
   86.C         5.760155   13.830384   13.709764
   87.C         5.181382   13.596853   15.113207
   88.H         5.343033   14.742350   13.258159
   89.H         6.852728   13.913416   13.751685
   90.N         5.656294   14.668617   16.025937
   91.H         5.484375   12.590068   15.462248
   92.H         4.079655   13.608091   15.056991
   93.C         5.461123    7.888444   15.730834
   94.C         5.825991    6.649671   16.573825
   95.N         4.688865    5.760391   16.804238
   96.H         6.232879    6.971742   17.547768
   97.H         6.622621    6.084817   16.060064
   98.H         5.125785    7.595608   14.728273
   99.H         4.681739    8.491280   16.223917
  100.C        11.383889    6.138599   14.287983
  101.C        11.700882    7.477442   14.985058
  102.H        12.267635    5.770178   13.748609
  103.H        11.054724    5.386313   15.023045
  104.N        12.837468    7.344848   15.880193
  105.H        10.807851    7.820369   15.538632
  106.H        11.906462    8.239369   14.212252
  107.C        11.042573    8.451790    5.019302
  108.C        10.632101    7.298161    4.097772
  109.H        11.178437    8.091162    6.044656
  110.H        11.967573    8.929668    4.667801
  111.N        11.606300    6.182668    4.294659
  112.H        10.681046    7.622927    3.045688
  113.H         9.588293    7.005152    4.324732
  114.C         5.605770    6.104744    6.077401
  115.C         4.616965    5.284310    6.910829
  116.H         6.624847    5.717790    6.183237
  117.H         5.327295    6.116953    5.010556
  118.N         4.720628    3.847837    6.527723
  119.H         3.599393    5.708942    6.794717
  120.H         4.896754    5.362980    7.974362
  121.C         4.444550    7.554666   11.725088
  122.C         3.430236    6.966835   10.723390
  123.H         4.401637    8.652364   11.737574
  124.H         4.259083    7.168229   12.739043
  125.N         2.040377    7.300589   11.034738
  126.H         3.538576    5.868845   10.689227
  127.H         3.664515    7.350667    9.715350
  128.C        14.302784    7.735198    7.123316
  129.C        14.853277    7.863026    5.700365
  130.H        13.260116    7.396109    7.103042
  131.H        14.910771    7.020097    7.688485
  132.N        14.633999    6.550850    5.035474
  133.H        15.935551    8.073364    5.737411
  134.H        14.360981    8.714551    5.185804
  135.C        13.797414   13.256527    4.322080
  136.C        15.045396   12.389948    4.010318
  137.H        13.983679   13.907592    5.183753
  138.H        13.494876   13.868723    3.456342
  139.N        16.291445   13.137565    4.041029
  140.H        14.910635   11.897266    3.030180
  141.H        15.108772   11.586480    4.767433
  142.C        10.487982   16.201111    8.152414
  143.C         9.712758   17.359881    8.804989
  144.H        11.051952   15.637168    8.903948
  145.H        11.176030   16.564738    7.372901
  146.N        10.572364   18.246114    9.600529
  147.H         8.949815   16.943285    9.485592
  148.H         9.190985   17.954669    8.035684
  149.C         8.722425   12.458854   16.054825
  150.C         9.368344   13.440088   17.043491
  151.H         7.859807   11.957460   16.516947
  152.H         8.400667   12.968689   15.139784
  153.N         8.399589   14.515680   17.372595
  154.H        10.307527   13.828602   16.603254
  155.H         9.640552   12.895806   17.963194
  156.C        13.675480   15.112045   14.585904
  157.C        13.374581   15.192858   16.093337
  158.H        14.619742   15.623786   14.337532
  159.H        12.857197   15.533774   13.983233
  160.N        14.396969   14.665996   16.995573
  161.H        12.434766   14.652664   16.296990
  162.H        13.201580   16.258436   16.341656
  163.C        15.283215   13.611544    8.959667
  164.C        15.525819   13.586161    7.446701
  165.H        15.442141   12.620761    9.404273
  166.H        15.931791   14.347780    9.460773
  167.N        16.917621   13.249393    7.063057
  168.H        15.276100   14.565729    7.007652
  169.H        14.860246   12.828682    6.999747
  170.H         4.378345    5.166145   16.036518
  171.H         3.970102    6.054222   17.464780
  172.H         6.483225   14.403929   16.602726
  173.H         4.909546   15.090645   16.589101
  174.H        13.767461    7.584774   15.548246
  175.H        12.695568    7.238041   16.879874
  176.H         8.442738   15.338045   16.734381
  177.H         8.416486   14.792228   18.361147
  178.H        14.480230   13.647799   17.034613
  179.H        15.290562   15.162943   17.012543
  180.H        17.609800   13.934212    7.395917
  181.H        17.187842   12.295180    7.335972
  182.H        17.048077    9.701975    9.176688
  183.H        18.445954    9.470369   10.157295
  184.H        15.023435    5.056414    6.512593
  185.H        15.739992    3.627611    7.253893
  186.H         7.570706    2.130423    8.041878
  187.H         6.526295    3.087964    7.002698
  188.H        11.623618    5.526767    3.501422
  189.H        11.413173    5.681729    5.174742
  190.H         4.520236    3.687169    5.530427
  191.H         4.125864    3.242945    7.111511
  192.H         1.741612    8.260987   10.855176
  193.H         1.615237    6.854489   11.848911
  194.H         6.412127   12.696834    2.955344
  195.H         7.613859   11.515066    3.311837
  196.H         4.802483   18.822835    7.415794
  197.H         5.403859   17.661470    6.293814
  198.H         6.935513   16.156053   15.405709
  199.H         7.700452   17.664317   15.736909
  200.H        11.275179   18.778453    9.078999
  201.H        10.919344   17.832682   10.472154
  202.H        16.502150   13.776374    3.275960
  203.H        16.709325   13.308789    4.969455
  204.H        15.304073    6.369635    4.276816
  205.H        13.648181    6.442648    4.712924
  206.O         2.556030   12.094205    5.889237
  207.C         2.370227   11.572042    6.951326
  208.O         2.120289   11.050660    7.999812
 <Feb04-2021> <20:24:49>  >>>> CORORT
 <Feb04-2021> <20:24:56>  >>>> CLSMAT
 <Feb04-2021> <20:25:00>  >>>> ORTHON
 <Feb04-2021> <20:25:10>  >>>> GENPT
 <Feb04-2021> <20:25:20>  Block Length= 128
 <Feb04-2021> <20:25:52>  >>>> PTBAS
 <Feb04-2021> <20:32:26>  >>>> CYCLE
 <Feb04-2021> <20:37:33>              |Error|         MaxErr       Wt(A-DIIS)
 <Feb04-2021> <20:37:33>      1      8.13855543      0.40631329
 <Feb04-2021> <20:43:54>      2      4.77074140      0.36991430    100.0
 <Feb04-2021> <20:50:20>      3     13.99963904      0.71777330    100.0
 <Feb04-2021> <20:56:52>      4      4.32686258      0.38668824    100.0
 <Feb04-2021> <21:03:16>      5      7.31014310      0.38448563    100.0
 <Feb04-2021> <21:09:40>      6      1.78588940      0.15051762    100.0
 <Feb04-2021> <21:16:24>      7     21.06129361      1.32512804    100.0
 <Feb04-2021> <21:22:59>      8      9.08406038      0.65349829    100.0
 <Feb04-2021> <21:29:30>      9      5.71360758      0.42485002    100.0
 <Feb04-2021> <21:35:57>     10      2.43556716      0.19943793    100.0
 <Feb04-2021> <21:42:23>     11      3.50807303      0.35887366    100.0
 <Feb04-2021> <21:48:49>     12      1.04413856      0.22050095    100.0
 <Feb04-2021> <21:55:16>     13      1.10660714      0.19535014    100.0
 <Feb04-2021> <22:01:43>     14      1.13777434      0.14080447    100.0
 <Feb04-2021> <22:08:09>     15      0.87766640      0.07240354     72.1
 <Feb04-2021> <22:14:35>     16      0.51248484      0.03858895     38.0
 <Feb04-2021> <22:21:02>     17      0.49678396      0.03945560     38.0
 <Feb04-2021> <22:27:26>     18      0.17498934      0.02478497     24.0
 <Feb04-2021> <22:33:52>     19      0.13404053      0.01302012     12.1
 <Feb04-2021> <22:40:18>     20      0.06334154      0.00541253      4.5
 <Feb04-2021> <22:46:44>     21      0.02614910      0.00220123      1.2
 <Feb04-2021> <22:53:11>     22      0.01424520      0.00147219      0.5
 <Feb04-2021> <22:59:37>     23      0.00638569      0.00042232      0.0
 <Feb04-2021> <23:06:03>     24      0.00267892      0.00035508      0.0
 <Feb04-2021> <23:12:29>     25      0.00180182      0.00019648      0.0
 <Feb04-2021> <23:18:55>     26      0.00052137      0.00009037      0.0
 <Feb04-2021> <23:25:21>     27      0.00038640      0.00003204      0.0
 <Feb04-2021> <23:31:46>     28      0.00014189      0.00001627      0.0
 <Feb04-2021> <23:38:11>     29      0.00021141      0.00002954      0.0
 <Feb04-2021> <23:44:37>     30      0.00004649      0.00000480      0.0
 <Feb04-2021> <23:51:02>     31      0.00001609      0.00000146      0.0
 <Feb04-2021> <23:57:29>     32      0.00002497      0.00000243      0.0
 <Feb05-2021> <00:03:54>     33      0.00001156      0.00000126      0.0
 <Feb05-2021> <00:10:28>     34      0.00000695      0.00000050      0.0
 <Feb05-2021> <00:12:03>  SCF converged
 <Feb05-2021> <00:17:05>     35      0.00000325      0.00000025      0.0
 <Feb05-2021> <00:17:16>  WARNING: partially occupied orbitals
 <Feb05-2021> <00:17:16>   Solutions with partially occupied orbitals may not be
 <Feb05-2021> <00:17:16>   lowest in energy. You might consider lowering the
 <Feb05-2021> <00:17:16>   symmetry in the input and explicitly specifying integer
 <Feb05-2021> <00:17:16>   occupations. In that case always check that you obtain
 <Feb05-2021> <00:17:16>   an aufbau solution.
 <Feb05-2021> <00:21:54>  >>>> TOTEN
 <Feb05-2021> <01:40:55>  >>>> POPAN
 <Feb05-2021> <01:40:59>  >>>> DEBYE
 <Feb05-2021> <01:41:23>  >>>> AMETS
 <Feb05-2021> <01:41:54>   Bond Energy         -36.85262729 a.u.
 <Feb05-2021> <01:41:54>   Bond Energy       -1002.81101188 eV
 <Feb05-2021> <01:41:54>   Bond Energy      -23125.38       kcal/mol
 <Feb05-2021> <01:41:54>  >>>> POPUL
 <Feb05-2021> <01:42:34>  NORMAL TERMINATION with warnings
 <Feb05-2021> <01:42:35>  END
