
 *******************************************************************************
 *                                                                             *
 *  -------------------------------------                                      *
 *   Amsterdam Density Functional  (ADF)         2019                          *
 *  -------------------------------------                                      *
 *                                               r74351 2019-04-25             *
 *                                                                             *
 *                                                                             *
 *                            =====================                            *
 *                            |                   |                            *
 *                            |     D I R A C     |                            *
 *                            |                   |                            *
 *                            =====================                            *
 *                                                                             *
 *                                                                             *
 *   Online information and documentation:  https://www.scm.com/support/       *
 *   E-mail:  support@scm.com   info@scm.com                                   *
 *                                                                             *
 *   Scientific publications using ADF results must be properly referenced     *
 *   See the User Manuals (or the web site) for recommended citations          *
 *   The terms and conditions of the End User License Agreement apply to       *
 *   the use of ADF, https://www.scm.com/license-terms/                        *
 *                                                                             *
 **********************  x86_64_linux_intel / intelmpi  ************************
 
 Licensed to: Dr. Emilie Guidez / UC Denver / Denver / CO / USA
 SCM User ID: u20218
  
 DIRAC 2019  RunTime: Feb04-2021 20:24:22  Nodes: 1  Procs: 1

 Temporary files are created in /home/chemistry/limjae/scr/kid_0.243825480

1
 HYDROGEN ATOM RELATIVISTIC, Point Nuc, A and c from libtc   
 N J RN H ZN XION ANUC CLIGHT
 5000    1100.00000000197.36710137  1.00000000  0.00000000    1.007825  0.1370360E+03
  PH   PHI     EPS        DEL        DELRVR
  0.30  0.30     2500.00  0.00001000  0.00001000
 IDIRC  NC1  NDEBU NPRIN  IPUN IRCOR IWCOR
   1   300     0     0     0     0     0
   XALPHA      XLATTER      RNUC
  0.70000000  0.00000000  0.00000000 Point Charge
   XN   XL   XJ      XE          XZ      XDELL
  1.0  0.0  0.5      -1.000       1.000     0.00000
 ICORP=  0  NPCL=  0  DEMP=0.00  PEPS=0.000000
 R(1)=  0.1000000E-08 D=  0.1005080E+01 RNUC=  0.0000000E+00
 converged at cycle   32  DENSITY AVERAGING    0.2400
  MAXIMUM ERROR IN R.V(R) IS   0.79874357E-05
 Q,EY,EV,EZ,ESUM,ETOT,RHO  0.100000E+01 -0.266614E+00 -0.619969E+00 -0.910779E+00 -0.203940E+00 -0.415998E+00  0.337036E-17


 DIRAC CALCULATION
1                    HYDROGEN ATOM RELATIVISTIC, Point Nuc, A and c from libtc


 EXCHANGE COEFFICIENT=  0.7000000           TAIL CORRECTION=  0.           NUCLEAR RADIUS=  0.000E+00
0                       ORBITAL    N    L    J     ELECTRONS     EIGENVALUE                DELTA OF EIGENV.

                          1S1/2  1.0  0.0  0.5     1.000       -0.2039397E+00                 0.2720093E-06


                                        NUCLEAR CHARGE=    1.000000
                            INTEGRAL OF CHARGE DENSITY=    1.000000
                           SUM OF THE ORBITAL ENERGIES=     -0.2039
                                          TOTAL ENERGY=     -0.4160
                                        KINETIC ENERGY=      0.4160
                             NUCLEAR ATTRACTION ENERGY=     -0.9108
                             ELECTRON REPULSION ENERGY=      0.2787
                                       EXCHANGE ENERGY=     -0.2000

 *******************************************************************************

                             D I R A C   E X I T
 NORMAL TERMINATION



 =================
 Timing Statistics
 =================
  
 Total Used :                     CPU=        0.07      System=        0.01     Elapsed=        0.13

 Calls  Section                     ( Mean, Percentage )
 ---------------------------------------------------------------------------------------------------
     2  ><      ................      0.00    0.02             0.00    0.43             0.00    0.03
     1  EXIT PROCEDURE .........      0.07   99.98             0.01   99.57             0.13   99.97


 Currently Open Files (EXIT00)
 ====================

 Unit    Access Format  Status   Type       Ident (file)
 -------------------------------------------------------
   3      SEQ    FORM   TRANSP  NORMAL      LOGFILE
                                          ( logfile )
 
Create H   file=DZ-H
XC
 GGA PBE
End
relativistic ZORA
Corepotentials t12.rel
End

 *******************************************************************************
 *                                                                             *
 *  -------------------------------------                                      *
 *   Amsterdam Density Functional  (ADF)         2019                          *
 *  -------------------------------------                                      *
 *                                               r74351 2019-04-25             *
 *                                                                             *
 *                                                                             *
 *                              =================                              *
 *                              |               |                              *
 *                              |     A D F     |                              *
 *                              |               |                              *
 *                              =================                              *
 *                                                                             *
 *                                                                             *
 *   Online information and documentation:  https://www.scm.com/support/       *
 *   E-mail:  support@scm.com   info@scm.com                                   *
 *                                                                             *
 *   Scientific publications using ADF results must be properly referenced     *
 *   See the User Manuals (or the web site) for recommended citations          *
 *   The terms and conditions of the End User License Agreement apply to       *
 *   the use of ADF, https://www.scm.com/license-terms/                        *
 *                                                                             *
 **********************  x86_64_linux_intel / intelmpi  ************************
 
 Licensed to: Dr. Emilie Guidez / UC Denver / Denver / CO / USA
 SCM User ID: u20218
  
 ADF 2019  RunTime: Feb04-2021 20:24:22  Nodes: 1  Procs: 1

 Temporary files are created in /home/chemistry/limjae/scr/kid_0.950720060

 Hydrogen (DZ)



 ===========================
 A T T A C H E D   F I L E S
 ===========================
  
 CREATE - Data File:    DZ-H
                        Hydrogen (DZ)
 Core Potentials:
         file : t12.rel



 ===============================
 M O D E L   P A R A M E T E R S
 ===============================
  
 DENSITY FUNCTIONAL POTENTIAL (scf)
    LDA:                               PW92                                    == Not Default ==
    Gradient Corrections:              PBEc PBEx                               == Not Default ==

 SPIN  (restricted / unrestr.)
    Molecule:                          Restricted                               

 OTHER ASPECTS
    Relativistic Corrections:          scalar (ZORA,MAPA)                      == Not Default ==

    Nuclear Charge Density Model:      Point Charge Nuclei                      
    Core Treatment:                    Frozen Orbital(s)                        

    Hyperfine or Zeeman Interaction:   ---                                      



 =====================================
 S Y M M E T R Y ,   E L E C T R O N S
 =====================================
  
 Symmetry: ATOM

 Irreducible Representations, including subspecies
 -------------------------------------------------
 S
 P:x  P:y  P:z
 D:z2  D:x2-y2  D:xy  D:xz  D:yz
 F:z3  F:z  F:xyz  F:z2x  F:z2y  F:x  F:y


 Configuration of Valence Electrons
 ==================================

          Occupation Numbers
          -------------------------------------------------
 S        1
 P        0
 D        0
 F        0
          -------------------------------------------------

 Total:   1

 Net Charge: 0 (Nuclei minus Electrons)

 Preset values for MO occupations will be applied through SCF cycle no. 1000000
 Thereafter, the program will assign electrons to MOs that are spatially
 similar to the occupied MOs in a "reference" cycle ("KeepOrbitals").
 The reference cycle is always the PREVIOUS cycle: it will evolve with
 the SCF procedure.



 ================================
 (Slater-type)  F U N C T I O N S  ***  (Basis and Fit)  ***
 ================================
  

 Atom Type    1  (H)
 ==============

 Valence Basis Sets:   2
 -----------------------
   1 S    0.760000
   1 S    1.280000


 BAS: List of all Elementary Cartesian Basis Functions
 =====================================================

 The numbering in the list below (to the right of the function characteristics) is referred
 to in print-outs of MO eigenvectors and Mulliken populations in the BAS representation
 (as contrasted to the SFO representation).

 Notes:
 1. The functions are characterized by a polynomial prefactor (powers of x,y,z and r) and
    an exponential decay factor alpha.
 2. Since the basis sets are specific for an atom TYPE, the individual functions occur on
    all atoms of that type.
 3. The word 'Core' in the left margin signals that it is a Core Function (CF) : not a
    degree of freedom in the valence set, but only used to ensure orthogonalization of
    the other valence basis functions on the frozen Core Orbitals.


 (power of) X  Y  Z  R     Alpha  on Atom
            ==========     =====     ==========

 H                                    1
                                  ---------------------------------------------------------------------------
            0  0  0  0     0.760      1
            0  0  0  0     1.280      2

 Total number of charge fitting functions (nprimf)        50
 Total number of Cartesian basis functions (naos)          2
 Total number of Cartesian core functions  (ncos)          0



 BAS: List of all Elementary Cartesian Basis Functions
 =====================================================

 The numbering in the list below (to the right of the function characteristics) is referred
 to in print-outs of MO eigenvectors and Mulliken populations in the BAS representation
 (as contrasted to the SFO representation).

 Notes:
 1. The functions are characterized by a polynomial prefactor (powers of x,y,z and r) and
    an exponential decay factor alpha.
 2. Since the basis sets are specific for an atom TYPE, the individual functions occur on
    all atoms of that type.
 3. The word 'Core' in the left margin signals that it is a Core Function (CF) : not a
    degree of freedom in the valence set, but only used to ensure orthogonalization of
    the other valence basis functions on the frozen Core Orbitals.


 (power of) X  Y  Z  R     Alpha  on Atom
            ==========     =====     ==========

 H                                    1
                                  ---------------------------------------------------------------------------
            0  0  0  0     0.760      1
            0  0  0  0     1.280      2
1
 ***************************************************************************************************



                                              ***********************
                                              *  T E C H N I C A L  *
                                              ***********************
  



 =============================================================
 P A R A L L E L I Z A T I O N  and  V E C T O R I Z A T I O N
 =============================================================
  
 Nr of parallel processes:                                1
 Maximum vector length in NumInt loops:                 128



 =====================
 S C F   U P D A T E S
 =====================
  
 Max. nr. of cycles:                               300
 Convergence criterion:                              0.0000000100
   secondary criterion:                              0.0000000100

 Mix parameter (when DIIS does not apply):           0.2000000000
 Special mix parameter for the first cycle:          1.0000000000
 Mixed ADIIS+SDIIS will be used                  
    Max number of expansion vectors:                10
    Pure ADIIS when Max([F,P]) is above              0.1000000000
    Pure SDIIS when Max([F,P]) is below              0.0010000000
 Automatic ElectronSmearing (in case of problematic SCF convergence) disabled



 =================
 P R E C I S I O N  ***  (General: NumInt, NeglectFunctionTails, ...)  ***
 =================
  

 NumInt:           Target precision:                12.0000000000
 -------           Initial precision:               10.0000000000
                   Min. precision (optimization):   10.0000000000

 Neglect Functions:          Basis functions:        0.1000000000E-13
 ------------------          Fit functions:          0.1000000000E-13



 ===========================
 L I N E A R   S C A L I N G
 ===========================
  

 Cut-off radii density fit:                        0.1000000000E-97
 Overlap cut-off criterion AO matrix elements:     0.1000000000E-97
 Cut-offs for Coulomb potential and fitted density:0.1000000000E-97
 Cut-off criterion for Coulomb multipole terms:    0.1000000000E-97
 Progressive Convergence parameter:                 0.000000000    
1
 ***************************************************************************************************



                                            ***************************
                                            *  C O M P U T A T I O N  *
                                            ***************************
  

 Number of elements of the density matrix on this node (used, total):         3         3



 ===========================================
 Numerical Integration : Fuzzy Cells (Becke)
 ===========================================
  
 Becke grid quality: VERYGOOD       
  
 Lebedev angular grid order:             min:  13 max:  41
 Nr. of radial points:                   min:  64 max:  64

 Total nr. of points:         64
 Nr. of blocks:                1
 Block length:                64
 Nr. of dummy points:          0


 Test of Precision of the Numerical Integration Grid
 ===================================================

 Integral of the Total Core Density:                   0.00000000000000



 ========================
 Density Fitting (zlmFit)
 ========================
  
 ZlmFit Fit Quality: VERYGOOD       
  
 Max L-expansion:                        min:   0 max:   0
 Nr. of radial interpolation points:     min: 120 max: 120



 =====
 S C F  ***  ScaSCF  ***
 =====
  

 CYCLE    1
 SCF Error: norm([F,P])=      0.000000000000, max([F,P])=      0.000000000000
 orbitals (Q,E):
 ---------------
 S :1...2            ( 1.00    -0.4983)  ( 0.00     0.1718)

 CYCLE    2
 SCF Error: norm([F,P])=      0.033001933656, max([F,P])=      0.033001933656
 orbitals (Q,E):
 ---------------
 S :1...2            ( 1.00    -0.2268)  ( 0.00     0.4005)

 CYCLE    3
  SDIIS (wt  0.000):  0.1528  0.8472
 A-DIIS (wt  1.000):  0.0000  1.0000
  DIIS coefficients:  0.0000  1.0000
 SCF Error: norm([F,P])=      0.005954454000, max([F,P])=      0.005954454000
 orbitals (Q,E):
 ---------------
 S :1...2            ( 1.00    -0.2417)  ( 0.00     0.3884)

 CYCLE    4
  SDIIS (wt  1.000):  0.1463  0.8537
 A-DIIS (wt  0.000):  0.0000  1.0000
  DIIS coefficients:  0.1463  0.8537
 SCF Error: norm([F,P])=      0.001020399433, max([F,P])=      0.001020399433
 orbitals (Q,E):
 ---------------
 S :1...2            ( 1.00    -0.2394)  ( 0.00     0.3902)

 CYCLE    5
  SDIIS (wt  1.000):  0.0014  0.9986
  DIIS coefficients:  0.0014  0.9986
 SCF Error: norm([F,P])=      0.000001436995, max([F,P])=      0.000001436995
 orbitals (Q,E):
 ---------------
 S :1...2            ( 1.00    -0.2394)  ( 0.00     0.3902)

 CYCLE    6
  SDIIS (wt  1.000): -0.0002  1.0002
  DIIS coefficients: -0.0002  1.0002
 SCF Error: norm([F,P])=      0.000000000334, max([F,P])=      0.000000000334
 orbitals (Q,E):
 ---------------
 S :1...2            ( 1.00    -0.2394)  ( 0.00     0.3902)

 SCF CONVERGED

 CYCLE    7
1
 ***************************************************************************************************



                                                *******************
                                                *  R E S U L T S  *
                                                *******************
  
 *** Using FIT density in Focky
  SDIIS (wt  1.000):  0.0000  1.0000
  DIIS coefficients:  0.0000  1.0000
 SCF Error: norm([F,P])=      0.000000000000, max([F,P])=      0.000000000000

 Scaled ZORA Orbital Energies, per Irrep and Spin:
 =================================================
                        Occup              E (au)              E (eV)       Diff (eV) with prev. cycle
                        -----      --------------------        ------       --------------------------
 S
               1        1.000     -0.23939248892723E+00        -6.514               9.37E-14
               2        0.000      0.39021645958604E+00        10.618


 Partially Occupied:
               1 S                -0.23939248892723E+00
  
 LUMO :        2 S                 0.39021645958604E+00
  


 All Electron Calculation, thus no Orbital Energies of the Core Orbitals are calculated



 =======================================
 M U L L I K E N   P O P U L A T I O N S
 =======================================
  
 The survey below gives for each atom:
 a) the total charge (Z minus electrons)
 b) the net spin polarization (nr of electrons spin-A minus spin-B)
 c) for each spin the atomic electron valence density (integrated) per L-value.

 Atom              Charge    Spin density          S         P         D         F
 ----              ------    ------------       ------    ------    ------    ------
 1 H              -0.0000                       1.0000    0.0000    0.0000    0.0000

 Populations of individual BAS functions
 ----------------------------------------
 1 H            0.6465  0.3535

 Gross Charges per Atom (Z minus electrons)
 ==========================================
            -0.0000
 Net Total: -0.00000000



 =======================================================================
 Electrostatic potential at the Nuclei due to electrons and other nuclei
 =======================================================================
  
         Atom                  Potential
         ----                  ---------
     1)   H                   0.94379605
 
 
 ========================
 No memory problems found
 ========================
 
 Maximum number of active allocate calls:         264
 
 *******************************************************************************

                             A D F   E X I T
 NORMAL TERMINATION



 =================
 Timing Statistics
 =================
  
 Total Used :                     CPU=        0.47      System=        0.07     Elapsed=        0.76

 Calls  Section                     ( Mean, Percentage )
 ---------------------------------------------------------------------------------------------------
     3  ><      ................      0.00    0.89             0.00    1.67             0.00    1.15
     1  INIT    ................      0.09   19.04             0.01   14.27             0.11   14.94
     1  GEOMET  ................      0.03    6.29             0.01   18.32             0.07    9.22
     1  INPUTA  ................      0.01    1.82             0.00    0.64             0.01    1.72
     1  MAINSY  ................      0.02    5.05             0.00    4.39             0.05    6.29
     1  SYMFIT  ................      0.00    0.13             0.00    2.79             0.00    0.40
     1  CORORT  ................      0.00    0.26             0.00    0.38             0.00    0.45
     1  SYMORB  ................      0.00    0.10             0.00    0.94             0.00    0.29
     1  CLSMAT  ................      0.01    1.69             0.00    4.48             0.02    2.33
     1  ORTHON  ................      0.01    1.88             0.00    1.77             0.02    2.38
     1  GENPT   ................      0.02    3.91             0.00    4.20             0.04    4.61
     1  PTBAS   ................      0.01    1.53             0.00    2.15             0.02    2.15
     7  FOCKY   ................      0.03   42.61             0.00   20.20             0.04   34.27
     7  FOCKTR  ................      0.00    1.60             0.00    1.08             0.00    2.22
     7  SDIIS   ................      0.00    5.25             0.00   10.51             0.01    8.27
     1  COREPS  ................      0.01    2.59             0.01    8.07             0.02    3.24
     1  POPAN   ................      0.01    1.19             0.00    0.24             0.01    1.41
     1  DEBYE   ................      0.00    0.59             0.00    0.00             0.01    0.71
     1  EXIT PROCEDURE .........      0.02    3.57             0.00    3.92             0.03    3.94


 Currently Open Files (EXIT00)
 ====================

 Unit    Access Format  Status   Type       Ident (file)
 -------------------------------------------------------
   3      SEQ    FORM   TRANSP  NORMAL      LOGFILE
                                          ( logfile )

 ***************************************************************************************************
 (LOGFILE)
 <Feb04-2021> <20:24:22>  DIRAC 2019  RunTime: Feb04-2021 20:24:22  Nodes: 1  Procs: 1
 <Feb04-2021> <20:24:22>  NORMAL TERMINATION
 <Feb04-2021> <20:24:22>  END
 <Feb04-2021> <20:24:22>  ADF 2019  RunTime: Feb04-2021 20:24:22  Nodes: 1  Procs: 1
 <Feb04-2021> <20:24:22>  Hydrogen (DZ)
 <Feb04-2021> <20:24:22>  RunType   : CREATE
 <Feb04-2021> <20:24:22>  Net Charge: 0 (Nuclei minus Electrons)
 <Feb04-2021> <20:24:22>  Symmetry  : ATOM
  Coordinates
    Atom         X           Y           Z   (Angstrom)
    1.H         0.000000    0.000000    0.000000
 <Feb04-2021> <20:24:22>  >>>> CORORT
 <Feb04-2021> <20:24:22>  >>>> CLSMAT
 <Feb04-2021> <20:24:22>  >>>> ORTHON
 <Feb04-2021> <20:24:22>  >>>> GENPT
 <Feb04-2021> <20:24:22>  Block Length=  64
 <Feb04-2021> <20:24:22>  >>>> PTBAS
 <Feb04-2021> <20:24:22>  >>>> CYCLE
 <Feb04-2021> <20:24:22>              |Error|         MaxErr       Wt(A-DIIS)
 <Feb04-2021> <20:24:22>      1      0.00000000      0.00000000
 <Feb04-2021> <20:24:22>      2      0.03300193      0.03300193
 <Feb04-2021> <20:24:22>      3      0.00595445      0.00595445    100.0
 <Feb04-2021> <20:24:23>      4      0.00102040      0.00102040      0.0
 <Feb04-2021> <20:24:23>      5      0.00000144      0.00000144      0.0
 <Feb04-2021> <20:24:23>      6      0.00000000      0.00000000      0.0
 <Feb04-2021> <20:24:23>  SCF converged
 <Feb04-2021> <20:24:23>      7      0.00000000      0.00000000      0.0
 <Feb04-2021> <20:24:23>  >>>> POPAN
 <Feb04-2021> <20:24:23>  >>>> DEBYE
 <Feb04-2021> <20:24:23>  NORMAL TERMINATION
 <Feb04-2021> <20:24:23>  END

 *******************************************************************************
 *                                                                             *
 *  -------------------------------------                                      *
 *   Amsterdam Density Functional  (ADF)         2019                          *
 *  -------------------------------------                                      *
 *                                               r74351 2019-04-25             *
 *                                                                             *
 *                                                                             *
 *                            =====================                            *
 *                            |                   |                            *
 *                            |     D I R A C     |                            *
 *                            |                   |                            *
 *                            =====================                            *
 *                                                                             *
 *                                                                             *
 *   Online information and documentation:  https://www.scm.com/support/       *
 *   E-mail:  support@scm.com   info@scm.com                                   *
 *                                                                             *
 *   Scientific publications using ADF results must be properly referenced     *
 *   See the User Manuals (or the web site) for recommended citations          *
 *   The terms and conditions of the End User License Agreement apply to       *
 *   the use of ADF, https://www.scm.com/license-terms/                        *
 *                                                                             *
 **********************  x86_64_linux_intel / intelmpi  ************************
 
 Licensed to: Dr. Emilie Guidez / UC Denver / Denver / CO / USA
 SCM User ID: u20218
  
 DIRAC 2019  RunTime: Feb04-2021 20:24:23  Nodes: 1  Procs: 1

 Temporary files are created in /home/chemistry/limjae/scr/kid_0.406115595

1
 NITROGEN ATOM 1s CORE RELATIVISTIC, Point Nuc, A and c from 
 N J RN H ZN XION ANUC CLIGHT
 5000    4100.00000000197.36710137  7.00000000  0.00000000   14.003074  0.1370360E+03
  PH   PHI     EPS        DEL        DELRVR
  0.30  0.30     2500.00  0.00001000  0.00001000
 IDIRC  NC1  NDEBU NPRIN  IPUN IRCOR IWCOR
   1   300     0     0     0     0     1
   XALPHA      XLATTER      RNUC
  0.70000000  0.00000000  0.00000000 Point Charge
   XN   XL   XJ      XE          XZ      XDELL
  1.0  0.0  0.5      -5.000       2.000     0.00000
  2.0  0.0  0.5      -1.000       2.000     0.00000
  2.0  1.0  0.5      -1.000       2.000     0.00000
  2.0  1.0  1.5      -1.000       1.000     0.00000
 ICORP=  0  NPCL=  0  DEMP=0.00  PEPS=0.000000
 R(1)=  0.1000000E-08 D=  0.1005080E+01 RNUC=  0.0000000E+00
 converged at cycle   25  DENSITY AVERAGING    0.3000
  MAXIMUM ERROR IN R.V(R) IS   0.97905511E-05
 Q,EY,EV,EZ,ESUM,ETOT,RHO  0.700000E+01 -0.796419E+01 -0.840156E+02 -0.127663E+03 -0.300692E+02 -0.538837E+02  0.270066E-14


 DIRAC CALCULATION
1                    NITROGEN ATOM 1s CORE RELATIVISTIC, Point Nuc, A and c from libtc


 EXCHANGE COEFFICIENT=  0.7000000           TAIL CORRECTION=  0.           NUCLEAR RADIUS=  0.000E+00
0                       ORBITAL    N    L    J     ELECTRONS     EIGENVALUE                DELTA OF EIGENV.

                          1S1/2  1.0  0.0  0.5     2.000       -0.1403720E+02                 0.4993583E-04
                          2S1/2  2.0  0.0  0.5     2.000       -0.6456810E+00                 0.6544571E-05
                          2P1/2  2.0  1.0  0.5     2.000       -0.2347008E+00                 0.5687228E-05
                          2P3/2  2.0  1.0  1.5     1.000       -0.2339893E+00                 0.5679256E-05


                                        NUCLEAR CHARGE=    7.000000
                            INTEGRAL OF CHARGE DENSITY=    7.000000
                           SUM OF THE ORBITAL ENERGIES=    -30.0692
                                          TOTAL ENERGY=    -53.8837
                                        KINETIC ENERGY=     53.9465
                             NUCLEAR ATTRACTION ENERGY=   -127.6627
                             ELECTRON REPULSION ENERGY=     25.8056
                                       EXCHANGE ENERGY=     -5.9731

 *******************************************************************************

                             D I R A C   E X I T
 NORMAL TERMINATION



 =================
 Timing Statistics
 =================
  
 Total Used :                     CPU=        0.10      System=        0.01     Elapsed=        0.17

 Calls  Section                     ( Mean, Percentage )
 ---------------------------------------------------------------------------------------------------
     2  ><      ................      0.00    0.00             0.00    0.05             0.00    0.01
     1  EXIT PROCEDURE .........      0.10  100.00             0.01   99.95             0.17   99.99


 Currently Open Files (EXIT00)
 ====================

 Unit    Access Format  Status   Type       Ident (file)
 -------------------------------------------------------
   3      SEQ    FORM   TRANSP  NORMAL      LOGFILE
                                          ( logfile )
 
Create N   file=DZ-N.1s
XC
 GGA PBE
End
relativistic ZORA
Corepotentials t12.rel
End

 *******************************************************************************
 *                                                                             *
 *  -------------------------------------                                      *
 *   Amsterdam Density Functional  (ADF)         2019                          *
 *  -------------------------------------                                      *
 *                                               r74351 2019-04-25             *
 *                                                                             *
 *                                                                             *
 *                              =================                              *
 *                              |               |                              *
 *                              |     A D F     |                              *
 *                              |               |                              *
 *                              =================                              *
 *                                                                             *
 *                                                                             *
 *   Online information and documentation:  https://www.scm.com/support/       *
 *   E-mail:  support@scm.com   info@scm.com                                   *
 *                                                                             *
 *   Scientific publications using ADF results must be properly referenced     *
 *   See the User Manuals (or the web site) for recommended citations          *
 *   The terms and conditions of the End User License Agreement apply to       *
 *   the use of ADF, https://www.scm.com/license-terms/                        *
 *                                                                             *
 **********************  x86_64_linux_intel / intelmpi  ************************
 
 Licensed to: Dr. Emilie Guidez / UC Denver / Denver / CO / USA
 SCM User ID: u20218
  
 ADF 2019  RunTime: Feb04-2021 20:24:23  Nodes: 1  Procs: 1

 Temporary files are created in /home/chemistry/limjae/scr/kid_0.534397396

 Nitrogen (DZ, 1s frozen)



 ===========================
 A T T A C H E D   F I L E S
 ===========================
  
 CREATE - Data File:    DZ-N.1s
                        Nitrogen (DZ, 1s frozen)
 Core Potentials:
         file : t12.rel



 ===============================
 M O D E L   P A R A M E T E R S
 ===============================
  
 DENSITY FUNCTIONAL POTENTIAL (scf)
    LDA:                               PW92                                    == Not Default ==
    Gradient Corrections:              PBEc PBEx                               == Not Default ==

 SPIN  (restricted / unrestr.)
    Molecule:                          Restricted                               

 OTHER ASPECTS
    Relativistic Corrections:          scalar (ZORA,MAPA)                      == Not Default ==

    Nuclear Charge Density Model:      Point Charge Nuclei                      
    Core Treatment:                    Frozen Orbital(s)                        

    Hyperfine or Zeeman Interaction:   ---                                      



 =====================================
 S Y M M E T R Y ,   E L E C T R O N S
 =====================================
  
 Symmetry: ATOM

 Irreducible Representations, including subspecies
 -------------------------------------------------
 S
 P:x  P:y  P:z
 D:z2  D:x2-y2  D:xy  D:xz  D:yz
 F:z3  F:z  F:xyz  F:z2x  F:z2y  F:x  F:y


 Configuration of Valence Electrons
 ==================================

          Occupation Numbers
          -------------------------------------------------
 S        2
 P        3
 D        0
 F        0
          -------------------------------------------------

 Total:   5

 Net Charge: 0 (Nuclei minus Electrons)

 Preset values for MO occupations will be applied through SCF cycle no. 1000000
 Thereafter, the program will assign electrons to MOs that are spatially
 similar to the occupied MOs in a "reference" cycle ("KeepOrbitals").
 The reference cycle is always the PREVIOUS cycle: it will evolve with
 the SCF procedure.



 ================================
 (Slater-type)  F U N C T I O N S  ***  (Basis and Fit)  ***
 ================================
  

 Atom Type    1  (N)
 ==============

 Valence Basis Sets:   5
 -----------------------
   1 S    6.380000
   2 S    1.460000
   2 S    2.380000
   2 P    1.120000
   2 P    2.580000

 Frozen Core Shells
 ------------------
    S:  1


 BAS: List of all Elementary Cartesian Basis Functions
 =====================================================

 The numbering in the list below (to the right of the function characteristics) is referred
 to in print-outs of MO eigenvectors and Mulliken populations in the BAS representation
 (as contrasted to the SFO representation).

 Notes:
 1. The functions are characterized by a polynomial prefactor (powers of x,y,z and r) and
    an exponential decay factor alpha.
 2. Since the basis sets are specific for an atom TYPE, the individual functions occur on
    all atoms of that type.
 3. The word 'Core' in the left margin signals that it is a Core Function (CF) : not a
    degree of freedom in the valence set, but only used to ensure orthogonalization of
    the other valence basis functions on the frozen Core Orbitals.


 (power of) X  Y  Z  R     Alpha  on Atom
            ==========     =====     ==========

 N                                    1
                                  ---------------------------------------------------------------------------
    Core    0  0  0  0     6.380      1
            0  0  0  1     1.460      2
            0  0  0  1     2.380      3
            1  0  0  0     1.120      4
            0  1  0  0     1.120      5
            0  0  1  0     1.120      6
            1  0  0  0     2.580      7
            0  1  0  0     2.580      8
            0  0  1  0     2.580      9

 Total number of charge fitting functions (nprimf)        82
 Total number of Cartesian basis functions (naos)          9
 Total number of Cartesian core functions  (ncos)          1



 BAS: List of all Elementary Cartesian Basis Functions
 =====================================================

 The numbering in the list below (to the right of the function characteristics) is referred
 to in print-outs of MO eigenvectors and Mulliken populations in the BAS representation
 (as contrasted to the SFO representation).

 Notes:
 1. The functions are characterized by a polynomial prefactor (powers of x,y,z and r) and
    an exponential decay factor alpha.
 2. Since the basis sets are specific for an atom TYPE, the individual functions occur on
    all atoms of that type.
 3. The word 'Core' in the left margin signals that it is a Core Function (CF) : not a
    degree of freedom in the valence set, but only used to ensure orthogonalization of
    the other valence basis functions on the frozen Core Orbitals.


 (power of) X  Y  Z  R     Alpha  on Atom
            ==========     =====     ==========

 N                                    1
                                  ---------------------------------------------------------------------------
    Core    0  0  0  0     6.380      1
            0  0  0  1     1.460      2
            0  0  0  1     2.380      3
            1  0  0  0     1.120      4
            0  1  0  0     1.120      5
            0  0  1  0     1.120      6
            1  0  0  0     2.580      7
            0  1  0  0     2.580      8
            0  0  1  0     2.580      9
1
 ***************************************************************************************************



                                              ***********************
                                              *  T E C H N I C A L  *
                                              ***********************
  



 =============================================================
 P A R A L L E L I Z A T I O N  and  V E C T O R I Z A T I O N
 =============================================================
  
 Nr of parallel processes:                                1
 Maximum vector length in NumInt loops:                 128



 =====================
 S C F   U P D A T E S
 =====================
  
 Max. nr. of cycles:                               300
 Convergence criterion:                              0.0000000100
   secondary criterion:                              0.0000000100

 Mix parameter (when DIIS does not apply):           0.2000000000
 Special mix parameter for the first cycle:          1.0000000000
 Mixed ADIIS+SDIIS will be used                  
    Max number of expansion vectors:                10
    Pure ADIIS when Max([F,P]) is above              0.1000000000
    Pure SDIIS when Max([F,P]) is below              0.0010000000
 Automatic ElectronSmearing (in case of problematic SCF convergence) disabled



 =================
 P R E C I S I O N  ***  (General: NumInt, NeglectFunctionTails, ...)  ***
 =================
  

 NumInt:           Target precision:                12.0000000000
 -------           Initial precision:               10.0000000000
                   Min. precision (optimization):   10.0000000000

 Neglect Functions:          Basis functions:        0.1000000000E-13
 ------------------          Fit functions:          0.1000000000E-13



 ===========================
 L I N E A R   S C A L I N G
 ===========================
  

 Cut-off radii density fit:                        0.1000000000E-97
 Overlap cut-off criterion AO matrix elements:     0.1000000000E-97
 Cut-offs for Coulomb potential and fitted density:0.1000000000E-97
 Cut-off criterion for Coulomb multipole terms:    0.1000000000E-97
 Progressive Convergence parameter:                 0.000000000    
1
 ***************************************************************************************************



                                            ***************************
                                            *  C O M P U T A T I O N  *
                                            ***************************
  

 Number of elements of the density matrix on this node (used, total):        45        45



 ===========================================
 Numerical Integration : Fuzzy Cells (Becke)
 ===========================================
  
 Becke grid quality: VERYGOOD       
  
 Lebedev angular grid order:             min:  13 max:  41
 Nr. of radial points:                   min:  68 max:  68

 Total nr. of points:         68
 Nr. of blocks:                1
 Block length:                68
 Nr. of dummy points:          0


 Test of Precision of the Numerical Integration Grid
 ===================================================

 Integral of the Total Core Density:                   2.00000004779027
 Relative Error:                                       2.390E-08



 ========================
 Density Fitting (zlmFit)
 ========================
  
 ZlmFit Fit Quality: VERYGOOD       
  
 Max L-expansion:                        min:   0 max:   0
 Nr. of radial interpolation points:     min: 150 max: 150



 =====
 S C F  ***  ScaSCF  ***
 =====
  

 CYCLE    1
 SCF Error: norm([F,P])=      0.000000000000, max([F,P])=      0.000000000000
 orbitals (Q,E):
 ---------------
 S :1...2            ( 2.00    -3.8308)  ( 0.00    -1.5342)
 P :1...2            ( 3.00    -3.5256)  ( 0.00    -1.4645)

 CYCLE    2
 SCF Error: norm([F,P])=      1.549673975551, max([F,P])=      1.258101921759
 orbitals (Q,E):
 ---------------
 S :1...2            ( 2.00    -0.1903)  ( 0.00     1.2168)
 P :1...2            ( 3.00     0.1546)  ( 0.00     1.2047)

 CYCLE    3
  SDIIS (wt  0.000):  0.4674  0.5326
 A-DIIS (wt  1.000):  0.3240  0.6760
  DIIS coefficients:  0.3240  0.6760
 SCF Error: norm([F,P])=      1.360249054281, max([F,P])=      1.048050156299
 orbitals (Q,E):
 ---------------
 S :1...2            ( 2.00    -0.8381)  ( 0.00     0.5861)
 P :1...2            ( 3.00    -0.4109)  ( 0.00     0.4817)

 CYCLE    4
  SDIIS (wt  0.000):  0.1928  0.8072
 A-DIIS (wt  1.000):  0.0000  1.0000
  DIIS coefficients:  0.0000  1.0000
 SCF Error: norm([F,P])=      0.325925918927, max([F,P])=      0.228226698732
 orbitals (Q,E):
 ---------------
 S :1...2            ( 2.00    -0.5797)  ( 0.00     0.7788)
 P :1...2            ( 3.00    -0.1643)  ( 0.00     0.6846)

 CYCLE    5
  SDIIS (wt  0.000):  0.4892  0.5108
 A-DIIS (wt  1.000):  0.4642  0.5358
  DIIS coefficients:  0.4642  0.5358
 SCF Error: norm([F,P])=      0.312119029167, max([F,P])=      0.221835145933
 orbitals (Q,E):
 ---------------
 S :1...2            ( 2.00    -0.6950)  ( 0.00     0.6844)
 P :1...2            ( 3.00    -0.2715)  ( 0.00     0.5814)

 CYCLE    6
  SDIIS (wt  0.928):  0.0359  0.9641
 A-DIIS (wt  0.072):  0.0000  1.0000
  DIIS coefficients:  0.0333  0.9667
 SCF Error: norm([F,P])=      0.011627935283, max([F,P])=      0.008114454643
 orbitals (Q,E):
 ---------------
 S :1...2            ( 2.00    -0.6895)  ( 0.00     0.6886)
 P :1...2            ( 3.00    -0.2663)  ( 0.00     0.5858)

 CYCLE    7
  SDIIS (wt  1.000):  0.0715  0.9285
  DIIS coefficients:  0.0715  0.9285
 SCF Error: norm([F,P])=      0.000895557034, max([F,P])=      0.000636506786
 orbitals (Q,E):
 ---------------
 S :1...2            ( 2.00    -0.6898)  ( 0.00     0.6884)
 P :1...2            ( 3.00    -0.2666)  ( 0.00     0.5855)

 CYCLE    8
  SDIIS (wt  1.000): -0.0084  1.0084
  DIIS coefficients: -0.0084  1.0084
 SCF Error: norm([F,P])=      0.000007431471, max([F,P])=      0.000005244833
 orbitals (Q,E):
 ---------------
 S :1...2            ( 2.00    -0.6898)  ( 0.00     0.6884)
 P :1...2            ( 3.00    -0.2666)  ( 0.00     0.5855)

 CYCLE    9
  SDIIS (wt  1.000):  0.0035  0.9965
  DIIS coefficients:  0.0035  0.9965
 SCF Error: norm([F,P])=      0.000000026230, max([F,P])=      0.000000018481
 orbitals (Q,E):
 ---------------
 S :1...2            ( 2.00    -0.6898)  ( 0.00     0.6884)
 P :1...2            ( 3.00    -0.2666)  ( 0.00     0.5855)

 CYCLE   10
  SDIIS (wt  1.000):  0.0008  0.9992
  DIIS coefficients:  0.0008  0.9992
 SCF Error: norm([F,P])=      0.000000000021, max([F,P])=      0.000000000015
 orbitals (Q,E):
 ---------------
 S :1...2            ( 2.00    -0.6898)  ( 0.00     0.6884)
 P :1...2            ( 3.00    -0.2666)  ( 0.00     0.5855)

 SCF CONVERGED

 CYCLE   11
1
 ***************************************************************************************************



                                                *******************
                                                *  R E S U L T S  *
                                                *******************
  
 *** Using FIT density in Focky
  SDIIS (wt  1.000):  0.0005  0.9995
  DIIS coefficients:  0.0005  0.9995
 SCF Error: norm([F,P])=      0.000000000000, max([F,P])=      0.000000000000

 Scaled ZORA Orbital Energies, per Irrep and Spin:
 =================================================
                        Occup              E (au)              E (eV)       Diff (eV) with prev. cycle
                        -----      --------------------        ------       --------------------------
 S
               1        2.000     -0.68979333234436E+00       -18.770               1.57E-13
               2        0.000      0.68835668824347E+00        18.731
 P
               1        3.000     -0.26655778219350E+00        -7.253               1.57E-13
               2        0.000      0.58549619457877E+00        15.932


 Partially Occupied:
               1 P                -0.26655778219350E+00
  
 HOMO :        1 S                -0.68979333234436E+00
 LUMO :        2 P                 0.58549619457877E+00
  


 Orbital Energies, all Irreps
 ========================================

 Irrep        no.  (spin)   Occup              E (au)                E (eV)
 ---------------------------------------------------------------------------
 S             1             2.00       -0.68979333234436E+00       -18.7702
 P             1             3.00       -0.26655778219350E+00        -7.2534
 P             2             0.00        0.58549619457877E+00        15.9322
 S             2             0.00        0.68835668824347E+00        18.7311


 Scaled ZORA Orbital Energies of the Core Orbitals:
 ==================================================

 (Note that the atoms are grouped by atomtype, see the labels, and may hence NOT be in input order)

 AtomType  Orbital  Atom                   E (au)                        E (eV)
 --------  -------  ----           --------------------        ----------------
 N           1S        1          -0.14166659762581E+02                -385.494



 =======================================
 M U L L I K E N   P O P U L A T I O N S
 =======================================
  
 The survey below gives for each atom:
 a) the total charge (Z minus electrons)
 b) the net spin polarization (nr of electrons spin-A minus spin-B)
 c) for each spin the atomic electron valence density (integrated) per L-value.

 Atom              Charge    Spin density          S         P         D         F
 ----              ------    ------------       ------    ------    ------    ------
 1 N              -0.0000                       2.0000    3.0000    0.0000    0.0000

 Populations of individual BAS functions
 ----------------------------------------
 1 N            0.0005  0.8702  1.1293  0.4947  0.4947  0.4947  0.5053  0.5053  0.5053

 Gross Charges per Atom (Z minus electrons)
 ==========================================
            -0.0000
 Net Total: -0.00000000



 =======================================================================
 Electrostatic potential at the Nuclei due to electrons and other nuclei
 =======================================================================
  
         Atom                  Potential
         ----                  ---------
     1)   N                  18.25311827
 
 
 ========================
 No memory problems found
 ========================
 
 Maximum number of active allocate calls:         319
 
 *******************************************************************************

                             A D F   E X I T
 NORMAL TERMINATION



 =================
 Timing Statistics
 =================
  
 Total Used :                     CPU=        0.65      System=        0.08     Elapsed=        1.02

 Calls  Section                     ( Mean, Percentage )
 ---------------------------------------------------------------------------------------------------
     3  ><      ................      0.00    1.06             0.00    0.02             0.00    1.00
     1  INIT    ................      0.09   14.08             0.01   12.34             0.12   11.29
     1  GEOMET  ................      0.03    5.25             0.01   11.55             0.07    7.05
     1  INPUTA  ................      0.01    1.38             0.00    0.30             0.02    1.65
     1  MAINSY  ................      0.02    3.63             0.01    9.99             0.06    5.86
     1  SYMFIT  ................      0.00    0.02             0.00    2.60             0.00    0.27
     1  CORORT  ................      0.00    0.22             0.00    0.23             0.00    0.40
     1  SYMORB  ................      0.00    0.18             0.00    0.00             0.00    0.24
     1  CLSMAT  ................      0.01    1.69             0.00    1.89             0.02    1.88
     1  ORTHON  ................      0.01    0.99             0.00    0.35             0.01    0.89
     1  GENPT   ................      0.02    2.60             0.00    4.34             0.03    3.10
     1  PTBAS   ................      0.01    1.19             0.00    0.51             0.02    1.48
    11  FOCKY   ................      0.03   52.90             0.00   25.37             0.04   43.22
    11  FOCKTR  ................      0.00    1.45             0.00    4.92             0.00    2.77
    11  SDIIS   ................      0.00    6.12             0.00   18.27             0.01   10.99
     1  COREPS  ................      0.02    3.63             0.00    0.44             0.03    3.09
     1  POPAN   ................      0.01    1.20             0.00    0.31             0.01    1.43
     1  DEBYE   ................      0.00    0.19             0.00    2.34             0.01    0.56
     1  EXIT PROCEDURE .........      0.01    2.22             0.00    4.24             0.03    2.82


 Currently Open Files (EXIT00)
 ====================

 Unit    Access Format  Status   Type       Ident (file)
 -------------------------------------------------------
   3      SEQ    FORM   TRANSP  NORMAL      LOGFILE
                                          ( logfile )

 ***************************************************************************************************
 (LOGFILE)
 <Feb04-2021> <20:24:22>  DIRAC 2019  RunTime: Feb04-2021 20:24:22  Nodes: 1  Procs: 1
 <Feb04-2021> <20:24:22>  NORMAL TERMINATION
 <Feb04-2021> <20:24:22>  END
 <Feb04-2021> <20:24:22>  ADF 2019  RunTime: Feb04-2021 20:24:22  Nodes: 1  Procs: 1
 <Feb04-2021> <20:24:22>  Hydrogen (DZ)
 <Feb04-2021> <20:24:22>  RunType   : CREATE
 <Feb04-2021> <20:24:22>  Net Charge: 0 (Nuclei minus Electrons)
 <Feb04-2021> <20:24:22>  Symmetry  : ATOM
  Coordinates
    Atom         X           Y           Z   (Angstrom)
    1.H         0.000000    0.000000    0.000000
 <Feb04-2021> <20:24:22>  >>>> CORORT
 <Feb04-2021> <20:24:22>  >>>> CLSMAT
 <Feb04-2021> <20:24:22>  >>>> ORTHON
 <Feb04-2021> <20:24:22>  >>>> GENPT
 <Feb04-2021> <20:24:22>  Block Length=  64
 <Feb04-2021> <20:24:22>  >>>> PTBAS
 <Feb04-2021> <20:24:22>  >>>> CYCLE
 <Feb04-2021> <20:24:22>              |Error|         MaxErr       Wt(A-DIIS)
 <Feb04-2021> <20:24:22>      1      0.00000000      0.00000000
 <Feb04-2021> <20:24:22>      2      0.03300193      0.03300193
 <Feb04-2021> <20:24:22>      3      0.00595445      0.00595445    100.0
 <Feb04-2021> <20:24:23>      4      0.00102040      0.00102040      0.0
 <Feb04-2021> <20:24:23>      5      0.00000144      0.00000144      0.0
 <Feb04-2021> <20:24:23>      6      0.00000000      0.00000000      0.0
 <Feb04-2021> <20:24:23>  SCF converged
 <Feb04-2021> <20:24:23>      7      0.00000000      0.00000000      0.0
 <Feb04-2021> <20:24:23>  >>>> POPAN
 <Feb04-2021> <20:24:23>  >>>> DEBYE
 <Feb04-2021> <20:24:23>  NORMAL TERMINATION
 <Feb04-2021> <20:24:23>  END
 <Feb04-2021> <20:24:23>  DIRAC 2019  RunTime: Feb04-2021 20:24:23  Nodes: 1  Procs: 1
 <Feb04-2021> <20:24:23>  NORMAL TERMINATION
 <Feb04-2021> <20:24:23>  END
 <Feb04-2021> <20:24:23>  ADF 2019  RunTime: Feb04-2021 20:24:23  Nodes: 1  Procs: 1
 <Feb04-2021> <20:24:23>  Nitrogen (DZ, 1s frozen)
 <Feb04-2021> <20:24:23>  RunType   : CREATE
 <Feb04-2021> <20:24:23>  Net Charge: 0 (Nuclei minus Electrons)
 <Feb04-2021> <20:24:23>  Symmetry  : ATOM
  Coordinates
    Atom         X           Y           Z   (Angstrom)
    1.N         0.000000    0.000000    0.000000
 <Feb04-2021> <20:24:23>  >>>> CORORT
 <Feb04-2021> <20:24:23>  >>>> CLSMAT
 <Feb04-2021> <20:24:23>  >>>> ORTHON
 <Feb04-2021> <20:24:23>  >>>> GENPT
 <Feb04-2021> <20:24:24>  Block Length=  68
 <Feb04-2021> <20:24:24>  >>>> PTBAS
 <Feb04-2021> <20:24:24>  >>>> CYCLE
 <Feb04-2021> <20:24:24>              |Error|         MaxErr       Wt(A-DIIS)
 <Feb04-2021> <20:24:24>      1      0.00000000      0.00000000
 <Feb04-2021> <20:24:24>      2      1.54967398      1.25810192
 <Feb04-2021> <20:24:24>      3      1.36024905      1.04805016    100.0
 <Feb04-2021> <20:24:24>      4      0.32592592      0.22822670    100.0
 <Feb04-2021> <20:24:24>      5      0.31211903      0.22183515    100.0
 <Feb04-2021> <20:24:24>      6      0.01162794      0.00811445      7.2
 <Feb04-2021> <20:24:24>      7      0.00089556      0.00063651      0.0
 <Feb04-2021> <20:24:24>      8      0.00000743      0.00000524      0.0
 <Feb04-2021> <20:24:24>      9      0.00000003      0.00000002      0.0
 <Feb04-2021> <20:24:24>     10      0.00000000      0.00000000      0.0
 <Feb04-2021> <20:24:24>  SCF converged
 <Feb04-2021> <20:24:24>     11      0.00000000      0.00000000      0.0
 <Feb04-2021> <20:24:24>  >>>> POPAN
 <Feb04-2021> <20:24:24>  >>>> DEBYE
 <Feb04-2021> <20:24:24>  NORMAL TERMINATION
 <Feb04-2021> <20:24:24>  END

 *******************************************************************************
 *                                                                             *
 *  -------------------------------------                                      *
 *   Amsterdam Density Functional  (ADF)         2019                          *
 *  -------------------------------------                                      *
 *                                               r74351 2019-04-25             *
 *                                                                             *
 *                                                                             *
 *                            =====================                            *
 *                            |                   |                            *
 *                            |     D I R A C     |                            *
 *                            |                   |                            *
 *                            =====================                            *
 *                                                                             *
 *                                                                             *
 *   Online information and documentation:  https://www.scm.com/support/       *
 *   E-mail:  support@scm.com   info@scm.com                                   *
 *                                                                             *
 *   Scientific publications using ADF results must be properly referenced     *
 *   See the User Manuals (or the web site) for recommended citations          *
 *   The terms and conditions of the End User License Agreement apply to       *
 *   the use of ADF, https://www.scm.com/license-terms/                        *
 *                                                                             *
 **********************  x86_64_linux_intel / intelmpi  ************************
 
 Licensed to: Dr. Emilie Guidez / UC Denver / Denver / CO / USA
 SCM User ID: u20218
  
 DIRAC 2019  RunTime: Feb04-2021 20:24:24  Nodes: 1  Procs: 1

 Temporary files are created in /home/chemistry/limjae/scr/kid_0.1353071399

1
 GOLD ATOM 4d CORE RELATIVISTIC, Point Nuc, A and c from libt
 N J RN H ZN XION ANUC CLIGHT
 5000   22100.00000000197.36710137 79.00000000  0.00000000  196.966551  0.1370360E+03
  PH   PHI     EPS        DEL        DELRVR
  0.30  0.30     2500.00  0.00001000  0.00001000
 IDIRC  NC1  NDEBU NPRIN  IPUN IRCOR IWCOR
   1   300     0     0     0     0    14
   XALPHA      XLATTER      RNUC
  0.70000000  0.00000000  0.00000000 Point Charge
   XN   XL   XJ      XE          XZ      XDELL
  1.0  0.0  0.5   -2600.000       2.000     0.00000
  2.0  0.0  0.5    -425.000       2.000     0.00000
  2.0  1.0  0.5    -425.000       2.000     0.00000
  2.0  1.0  1.5    -425.000       4.000     0.00000
  3.0  0.0  0.5    -100.000       2.000     0.00000
  3.0  1.0  0.5    -100.000       2.000     0.00000
  3.0  1.0  1.5    -100.000       4.000     0.00000
  3.0  2.0  1.5     -80.000       4.000     0.00000
  3.0  2.0  2.5     -80.000       6.000     0.00000
  4.0  0.0  0.5     -22.000       2.000     0.00000
  4.0  1.0  0.5     -20.000       2.000     0.00000
  4.0  1.0  1.5     -20.000       4.000     0.00000
  4.0  2.0  1.5     -11.000       4.000     0.00000
  4.0  2.0  2.5     -11.000       6.000     0.00000
  4.0  3.0  2.5      -1.000       6.000     0.00000
  4.0  3.0  3.5      -1.000       8.000     0.00000
  5.0  0.0  0.5      -3.000       2.000     0.00000
  5.0  1.0  0.5      -2.200       2.000     0.00000
  5.0  1.0  1.5      -2.200       4.000     0.00000
  5.0  2.0  1.5      -0.500       4.000     0.00000
  5.0  2.0  2.5      -0.500       6.000     0.00000
  6.0  0.0  0.5      -0.200       1.000     0.00000
 ICORP=  0  NPCL=  0  DEMP=0.00  PEPS=0.000000
 R(1)=  0.1000000E-08 D=  0.1005080E+01 RNUC=  0.0000000E+00
 converged at cycle   60  DENSITY AVERAGING    0.0786
  MAXIMUM ERROR IN R.V(R) IS   0.38523360E-05
 Q,EY,EV,EZ,ESUM,ETOT,RHO  0.790000E+02 -0.485545E+03 -0.336404E+05 -0.479937E+05 -0.117486E+05 -0.190466E+05  0.196298E-08


 DIRAC CALCULATION
1                    GOLD ATOM 4d CORE RELATIVISTIC, Point Nuc, A and c from libtc


 EXCHANGE COEFFICIENT=  0.7000000           TAIL CORRECTION=  0.           NUCLEAR RADIUS=  0.000E+00
0                       ORBITAL    N    L    J     ELECTRONS     EIGENVALUE                DELTA OF EIGENV.

                          1S1/2  1.0  0.0  0.5     2.000       -0.2963119E+04                 0.3731460E-04
                          2S1/2  2.0  0.0  0.5     2.000       -0.5226069E+03                 0.3102938E-04
                          2P1/2  2.0  1.0  0.5     2.000       -0.5013071E+03                 0.3249986E-04
                          2P3/2  2.0  1.0  1.5     4.000       -0.4338328E+03                 0.3150316E-04
                          3S1/2  3.0  0.0  0.5     2.000       -0.1233461E+03                 0.2017137E-04
                          3P1/2  3.0  1.0  0.5     2.000       -0.1137481E+03                 0.2099254E-04
                          3P3/2  3.0  1.0  1.5     4.000       -0.9885554E+02                 0.1984570E-04
                          3D3/2  3.0  2.0  1.5     4.000       -0.8287610E+02                 0.2174809E-04
                          3D5/2  3.0  2.0  2.5     6.000       -0.7967162E+02                 0.2135379E-04
                          4S1/2  4.0  0.0  0.5     2.000       -0.2673972E+02                 0.1054160E-04
                          4P1/2  4.0  1.0  0.5     2.000       -0.2264484E+02                 0.1056903E-04
                          4P3/2  4.0  1.0  1.5     4.000       -0.1906321E+02                 0.9669504E-05
                          4D3/2  4.0  2.0  1.5     4.000       -0.1235180E+02                 0.9615342E-05
                          4D5/2  4.0  2.0  2.5     6.000       -0.1168427E+02                 0.9341815E-05
                          4F5/2  4.0  3.0  2.5     6.000       -0.3062221E+01                 0.8653601E-05
                          4F7/2  4.0  3.0  3.5     8.000       -0.2921300E+01                 0.8510675E-05
                          5S1/2  5.0  0.0  0.5     2.000       -0.3963776E+01                 0.3355907E-05
                          5P1/2  5.0  1.0  0.5     2.000       -0.2629660E+01                 0.2984355E-05
                          5P3/2  5.0  1.0  1.5     4.000       -0.2015087E+01                 0.2530381E-05
                          5D3/2  5.0  2.0  1.5     4.000       -0.2662248E+00                 0.1434098E-05
                          5D5/2  5.0  2.0  2.5     6.000       -0.2094938E+00                 0.1305568E-05
                          6S1/2  6.0  0.0  0.5     1.000       -0.1940684E+00                 0.3484321E-06


                                        NUCLEAR CHARGE=   79.000000
                            INTEGRAL OF CHARGE DENSITY=   79.000000
                           SUM OF THE ORBITAL ENERGIES= -11748.5839
                                          TOTAL ENERGY= -19046.6065
                                        KINETIC ENERGY=  21891.8398
                             NUCLEAR ATTRACTION ENERGY= -47993.6963
                             ELECTRON REPULSION ENERGY=   7419.4090
                                       EXCHANGE ENERGY=   -364.1591

 *******************************************************************************

                             D I R A C   E X I T
 NORMAL TERMINATION



 =================
 Timing Statistics
 =================
  
 Total Used :                     CPU=        0.61      System=        0.02     Elapsed=        0.76

 Calls  Section                     ( Mean, Percentage )
 ---------------------------------------------------------------------------------------------------
     2  ><      ................      0.00    0.00             0.00    0.04             0.00    0.00
     1  EXIT PROCEDURE .........      0.61  100.00             0.02   99.96             0.76  100.00


 Currently Open Files (EXIT00)
 ====================

 Unit    Access Format  Status   Type       Ident (file)
 -------------------------------------------------------
   3      SEQ    FORM   TRANSP  NORMAL      LOGFILE
                                          ( logfile )
 
Create Au   file=DZ-Au.4d
XC
 GGA PBE
End
relativistic ZORA
Corepotentials t12.rel
End

 *******************************************************************************
 *                                                                             *
 *  -------------------------------------                                      *
 *   Amsterdam Density Functional  (ADF)         2019                          *
 *  -------------------------------------                                      *
 *                                               r74351 2019-04-25             *
 *                                                                             *
 *                                                                             *
 *                              =================                              *
 *                              |               |                              *
 *                              |     A D F     |                              *
 *                              |               |                              *
 *                              =================                              *
 *                                                                             *
 *                                                                             *
 *   Online information and documentation:  https://www.scm.com/support/       *
 *   E-mail:  support@scm.com   info@scm.com                                   *
 *                                                                             *
 *   Scientific publications using ADF results must be properly referenced     *
 *   See the User Manuals (or the web site) for recommended citations          *
 *   The terms and conditions of the End User License Agreement apply to       *
 *   the use of ADF, https://www.scm.com/license-terms/                        *
 *                                                                             *
 **********************  x86_64_linux_intel / intelmpi  ************************
 
 Licensed to: Dr. Emilie Guidez / UC Denver / Denver / CO / USA
 SCM User ID: u20218
  
 ADF 2019  RunTime: Feb04-2021 20:24:25  Nodes: 1  Procs: 1

 Temporary files are created in /home/chemistry/limjae/scr/kid_0.942368600

 Gold (DZ, 4d frozen)



 ===========================
 A T T A C H E D   F I L E S
 ===========================
  
 CREATE - Data File:    DZ-Au.4d
                        Gold (DZ, 4d frozen)
 Core Potentials:
         file : t12.rel



 ===============================
 M O D E L   P A R A M E T E R S
 ===============================
  
 DENSITY FUNCTIONAL POTENTIAL (scf)
    LDA:                               PW92                                    == Not Default ==
    Gradient Corrections:              PBEc PBEx                               == Not Default ==

 SPIN  (restricted / unrestr.)
    Molecule:                          Restricted                               

 OTHER ASPECTS
    Relativistic Corrections:          scalar (ZORA,MAPA)                      == Not Default ==

    Nuclear Charge Density Model:      Point Charge Nuclei                      
    Core Treatment:                    Frozen Orbital(s)                        

    Hyperfine or Zeeman Interaction:   ---                                      



 =====================================
 S Y M M E T R Y ,   E L E C T R O N S
 =====================================
  
 Symmetry: ATOM

 Irreducible Representations, including subspecies
 -------------------------------------------------
 S
 P:x  P:y  P:z
 D:z2  D:x2-y2  D:xy  D:xz  D:yz
 F:z3  F:z  F:xyz  F:z2x  F:z2y  F:x  F:y


 Configuration of Valence Electrons
 ==================================

          Occupation Numbers
          -------------------------------------------------
 S        2 1
 P        6
 D        10
 F        14
          -------------------------------------------------

 Total:   33

 Net Charge: 0 (Nuclei minus Electrons)

 Preset values for MO occupations will be applied through SCF cycle no. 1000000
 Thereafter, the program will assign electrons to MOs that are spatially
 similar to the occupied MOs in a "reference" cycle ("KeepOrbitals").
 The reference cycle is always the PREVIOUS cycle: it will evolve with
 the SCF procedure.



 ================================
 (Slater-type)  F U N C T I O N S  ***  (Basis and Fit)  ***
 ================================
  

 Atom Type    1  (Au)
 ==============

 Valence Basis Sets:  21
 -----------------------
   1 S   57.000000
   2 S   36.650000
   3 S   21.050000
   4 S   12.400000
   2 P   39.650000
   3 P   17.950000
   4 P   12.550000
   3 D   22.100000
   4 D   11.200000
   5 S    7.000000
   5 S    4.600000
   6 S    2.850000
   6 S    1.510000
   5 P    6.000000
   5 P    3.700000
   5 D    4.350000
   5 D    2.000000
   4 F   16.150000
   4 F    8.900000
   4 F    4.900000
   6 P    1.950000

 Frozen Core Shells
 ------------------
    S:  4
    P:  3
    D:  2


 BAS: List of all Elementary Cartesian Basis Functions
 =====================================================

 The numbering in the list below (to the right of the function characteristics) is referred
 to in print-outs of MO eigenvectors and Mulliken populations in the BAS representation
 (as contrasted to the SFO representation).

 Notes:
 1. The functions are characterized by a polynomial prefactor (powers of x,y,z and r) and
    an exponential decay factor alpha.
 2. Since the basis sets are specific for an atom TYPE, the individual functions occur on
    all atoms of that type.
 3. The word 'Core' in the left margin signals that it is a Core Function (CF) : not a
    degree of freedom in the valence set, but only used to ensure orthogonalization of
    the other valence basis functions on the frozen Core Orbitals.


 (power of) X  Y  Z  R     Alpha  on Atom
            ==========     =====     ==========

 Au                                   1
                                  ---------------------------------------------------------------------------
    Core    0  0  0  0    57.000      1
    Core    0  0  0  1    36.650      2
    Core    0  0  0  2    21.050      3
    Core    0  0  0  3    12.400      4
    Core    1  0  0  0    39.650      5
    Core    0  1  0  0    39.650      6
    Core    0  0  1  0    39.650      7
    Core    1  0  0  1    17.950      8
    Core    0  1  0  1    17.950      9
    Core    0  0  1  1    17.950     10
    Core    1  0  0  2    12.550     11
    Core    0  1  0  2    12.550     12
    Core    0  0  1  2    12.550     13
    Core    2  0  0  0    22.100     14
    Core    1  1  0  0    22.100     15
    Core    1  0  1  0    22.100     16
    Core    0  2  0  0    22.100     17
    Core    0  1  1  0    22.100     18
    Core    0  0  2  0    22.100     19
    Core    2  0  0  1    11.200     20
    Core    1  1  0  1    11.200     21
    Core    1  0  1  1    11.200     22
    Core    0  2  0  1    11.200     23
    Core    0  1  1  1    11.200     24
    Core    0  0  2  1    11.200     25
            0  0  0  4     7.000     26
            0  0  0  4     4.600     27
            0  0  0  5     2.850     28
            0  0  0  5     1.510     29
            1  0  0  3     6.000     30
            0  1  0  3     6.000     31
            0  0  1  3     6.000     32
            1  0  0  3     3.700     33
            0  1  0  3     3.700     34
            0  0  1  3     3.700     35
            2  0  0  2     4.350     36
            1  1  0  2     4.350     37
            1  0  1  2     4.350     38
            0  2  0  2     4.350     39
            0  1  1  2     4.350     40
            0  0  2  2     4.350     41
            2  0  0  2     2.000     42
            1  1  0  2     2.000     43
            1  0  1  2     2.000     44
            0  2  0  2     2.000     45
            0  1  1  2     2.000     46
            0  0  2  2     2.000     47
            3  0  0  0    16.150     48
            2  1  0  0    16.150     49
            2  0  1  0    16.150     50
            1  2  0  0    16.150     51
            1  1  1  0    16.150     52
            1  0  2  0    16.150     53
            0  3  0  0    16.150     54
            0  2  1  0    16.150     55
            0  1  2  0    16.150     56
            0  0  3  0    16.150     57
            3  0  0  0     8.900     58
            2  1  0  0     8.900     59
            2  0  1  0     8.900     60
            1  2  0  0     8.900     61
            1  1  1  0     8.900     62
            1  0  2  0     8.900     63
            0  3  0  0     8.900     64
            0  2  1  0     8.900     65
            0  1  2  0     8.900     66
            0  0  3  0     8.900     67
            3  0  0  0     4.900     68
            2  1  0  0     4.900     69
            2  0  1  0     4.900     70
            1  2  0  0     4.900     71
            1  1  1  0     4.900     72
            1  0  2  0     4.900     73
            0  3  0  0     4.900     74
            0  2  1  0     4.900     75
            0  1  2  0     4.900     76
            0  0  3  0     4.900     77
            1  0  0  4     1.950     78
            0  1  0  4     1.950     79
            0  0  1  4     1.950     80

 Total number of charge fitting functions (nprimf)       327
 Total number of Cartesian basis functions (naos)         80
 Total number of Cartesian core functions  (ncos)         25



 BAS: List of all Elementary Cartesian Basis Functions
 =====================================================

 The numbering in the list below (to the right of the function characteristics) is referred
 to in print-outs of MO eigenvectors and Mulliken populations in the BAS representation
 (as contrasted to the SFO representation).

 Notes:
 1. The functions are characterized by a polynomial prefactor (powers of x,y,z and r) and
    an exponential decay factor alpha.
 2. Since the basis sets are specific for an atom TYPE, the individual functions occur on
    all atoms of that type.
 3. The word 'Core' in the left margin signals that it is a Core Function (CF) : not a
    degree of freedom in the valence set, but only used to ensure orthogonalization of
    the other valence basis functions on the frozen Core Orbitals.


 (power of) X  Y  Z  R     Alpha  on Atom
            ==========     =====     ==========

 Au                                   1
                                  ---------------------------------------------------------------------------
    Core    0  0  0  0    57.000      1
    Core    0  0  0  1    36.650      2
    Core    0  0  0  2    21.050      3
    Core    0  0  0  3    12.400      4
    Core    1  0  0  0    39.650      5
    Core    0  1  0  0    39.650      6
    Core    0  0  1  0    39.650      7
    Core    1  0  0  1    17.950      8
    Core    0  1  0  1    17.950      9
    Core    0  0  1  1    17.950     10
    Core    1  0  0  2    12.550     11
    Core    0  1  0  2    12.550     12
    Core    0  0  1  2    12.550     13
    Core    2  0  0  0    22.100     14
    Core    1  1  0  0    22.100     15
    Core    1  0  1  0    22.100     16
    Core    0  2  0  0    22.100     17
    Core    0  1  1  0    22.100     18
    Core    0  0  2  0    22.100     19
    Core    2  0  0  1    11.200     20
    Core    1  1  0  1    11.200     21
    Core    1  0  1  1    11.200     22
    Core    0  2  0  1    11.200     23
    Core    0  1  1  1    11.200     24
    Core    0  0  2  1    11.200     25
            0  0  0  4     7.000     26
            0  0  0  4     4.600     27
            0  0  0  5     2.850     28
            0  0  0  5     1.510     29
            1  0  0  3     6.000     30
            0  1  0  3     6.000     31
            0  0  1  3     6.000     32
            1  0  0  3     3.700     33
            0  1  0  3     3.700     34
            0  0  1  3     3.700     35
            2  0  0  2     4.350     36
            1  1  0  2     4.350     37
            1  0  1  2     4.350     38
            0  2  0  2     4.350     39
            0  1  1  2     4.350     40
            0  0  2  2     4.350     41
            2  0  0  2     2.000     42
            1  1  0  2     2.000     43
            1  0  1  2     2.000     44
            0  2  0  2     2.000     45
            0  1  1  2     2.000     46
            0  0  2  2     2.000     47
            3  0  0  0    16.150     48
            2  1  0  0    16.150     49
            2  0  1  0    16.150     50
            1  2  0  0    16.150     51
            1  1  1  0    16.150     52
            1  0  2  0    16.150     53
            0  3  0  0    16.150     54
            0  2  1  0    16.150     55
            0  1  2  0    16.150     56
            0  0  3  0    16.150     57
            3  0  0  0     8.900     58
            2  1  0  0     8.900     59
            2  0  1  0     8.900     60
            1  2  0  0     8.900     61
            1  1  1  0     8.900     62
            1  0  2  0     8.900     63
            0  3  0  0     8.900     64
            0  2  1  0     8.900     65
            0  1  2  0     8.900     66
            0  0  3  0     8.900     67
            3  0  0  0     4.900     68
            2  1  0  0     4.900     69
            2  0  1  0     4.900     70
            1  2  0  0     4.900     71
            1  1  1  0     4.900     72
            1  0  2  0     4.900     73
            0  3  0  0     4.900     74
            0  2  1  0     4.900     75
            0  1  2  0     4.900     76
            0  0  3  0     4.900     77
            1  0  0  4     1.950     78
            0  1  0  4     1.950     79
            0  0  1  4     1.950     80
1
 ***************************************************************************************************



                                              ***********************
                                              *  T E C H N I C A L  *
                                              ***********************
  



 =============================================================
 P A R A L L E L I Z A T I O N  and  V E C T O R I Z A T I O N
 =============================================================
  
 Nr of parallel processes:                                1
 Maximum vector length in NumInt loops:                 128



 =====================
 S C F   U P D A T E S
 =====================
  
 Max. nr. of cycles:                               300
 Convergence criterion:                              0.0000000100
   secondary criterion:                              0.0000000100

 Mix parameter (when DIIS does not apply):           0.2000000000
 Special mix parameter for the first cycle:          1.0000000000
 Mixed ADIIS+SDIIS will be used                  
    Max number of expansion vectors:                10
    Pure ADIIS when Max([F,P]) is above              0.1000000000
    Pure SDIIS when Max([F,P]) is below              0.0010000000
 Automatic ElectronSmearing (in case of problematic SCF convergence) disabled



 =================
 P R E C I S I O N  ***  (General: NumInt, NeglectFunctionTails, ...)  ***
 =================
  

 NumInt:           Target precision:                12.0000000000
 -------           Initial precision:               10.0000000000
                   Min. precision (optimization):   10.0000000000

 Neglect Functions:          Basis functions:        0.1000000000E-13
 ------------------          Fit functions:          0.1000000000E-13



 ===========================
 L I N E A R   S C A L I N G
 ===========================
  

 Cut-off radii density fit:                        0.1000000000E-97
 Overlap cut-off criterion AO matrix elements:     0.1000000000E-97
 Cut-offs for Coulomb potential and fitted density:0.1000000000E-97
 Cut-off criterion for Coulomb multipole terms:    0.1000000000E-97
 Progressive Convergence parameter:                 0.000000000    
1
 ***************************************************************************************************



                                            ***************************
                                            *  C O M P U T A T I O N  *
                                            ***************************
  

 Number of elements of the density matrix on this node (used, total):      3240      3240



 ===========================================
 Numerical Integration : Fuzzy Cells (Becke)
 ===========================================
  
 Becke grid quality: VERYGOOD       
  
 Lebedev angular grid order:             min:  13 max:  41
 Nr. of radial points:                   min: 123 max: 123

 Total nr. of points:        123
 Nr. of blocks:                1
 Block length:               123
 Nr. of dummy points:          0


 Test of Precision of the Numerical Integration Grid
 ===================================================

 Integral of the Total Core Density:                  45.99999991226612
 Relative Error:                                      -1.907E-09



 ========================
 Density Fitting (zlmFit)
 ========================
  
 ZlmFit Fit Quality: VERYGOOD       
  
 Max L-expansion:                        min:   0 max:   0
 Nr. of radial interpolation points:     min: 270 max: 270



 =====
 S C F  ***  ScaSCF  ***
 =====
  

 CYCLE    1
 SCF Error: norm([F,P])=      0.000000000000, max([F,P])=      0.000000000000
 orbitals (Q,E):
 ---------------
 S :1...4            ( 2.00   -36.7762)  ( 1.00   -21.6820)  ( 0.00   -12.9085)  ( 0.00    -7.1191)
 P :1...3            ( 6.00   -33.0866)  ( 0.00   -18.4007)  ( 0.00    -9.4584)
 D :1...2            (10.00   -25.1484)  ( 0.00   -11.3803)
[...]
 <Feb04-2021> <20:24:28>              |Error|         MaxErr       Wt(A-DIIS)
 <Feb04-2021> <20:24:28>      1      0.00000000      0.00000000
 <Feb04-2021> <20:24:28>      2      2.51022395      1.83694100
 <Feb04-2021> <20:24:28>      3      2.38195714      1.61935802    100.0
 <Feb04-2021> <20:24:28>      4      0.46758430      0.27634710    100.0
 <Feb04-2021> <20:24:28>      5      0.50410652      0.30498859    100.0
 <Feb04-2021> <20:24:28>      6      0.01247625      0.00764533      6.7
 <Feb04-2021> <20:24:28>      7      0.00085022      0.00051605      0.0
 <Feb04-2021> <20:24:28>      8      0.00000244      0.00000146      0.0
 <Feb04-2021> <20:24:28>      9      0.00000001      0.00000000      0.0
 <Feb04-2021> <20:24:28>  SCF converged
 <Feb04-2021> <20:24:28>     10      0.00000000      0.00000000      0.0
 <Feb04-2021> <20:24:28>  >>>> POPAN
 <Feb04-2021> <20:24:28>  >>>> DEBYE
 <Feb04-2021> <20:24:28>  NORMAL TERMINATION
 <Feb04-2021> <20:24:28>  END
 <Feb04-2021> <20:24:29>  DIRAC 2019  RunTime: Feb04-2021 20:24:29  Nodes: 1  Procs: 1
 <Feb04-2021> <20:24:29>  NORMAL TERMINATION
 <Feb04-2021> <20:24:29>  END
 <Feb04-2021> <20:24:29>  ADF 2019  RunTime: Feb04-2021 20:24:29  Nodes: 1  Procs: 1
 <Feb04-2021> <20:24:29>  Carbon (DZ, 1s frozen)
 <Feb04-2021> <20:24:29>  RunType   : CREATE
 <Feb04-2021> <20:24:29>  Net Charge: 0 (Nuclei minus Electrons)
 <Feb04-2021> <20:24:29>  Symmetry  : ATOM
  Coordinates
    Atom         X           Y           Z   (Angstrom)
    1.C         0.000000    0.000000    0.000000
 <Feb04-2021> <20:24:29>  >>>> CORORT
 <Feb04-2021> <20:24:29>  >>>> CLSMAT
 <Feb04-2021> <20:24:29>  >>>> ORTHON
 <Feb04-2021> <20:24:29>  >>>> GENPT
 <Feb04-2021> <20:24:29>  Block Length=  68
 <Feb04-2021> <20:24:29>  >>>> PTBAS
 <Feb04-2021> <20:24:29>  >>>> CYCLE
 <Feb04-2021> <20:24:29>              |Error|         MaxErr       Wt(A-DIIS)
 <Feb04-2021> <20:24:29>      1      0.00000000      0.00000000
 <Feb04-2021> <20:24:29>      2      0.96385221      0.85255436
 <Feb04-2021> <20:24:29>      3      0.69816270      0.60759186    100.0
 <Feb04-2021> <20:24:30>      4      0.25244702      0.20719292    100.0
 <Feb04-2021> <20:24:30>      5      0.19639955      0.16352478    100.0
 <Feb04-2021> <20:24:30>      6      0.03180040      0.02617408     25.4
 <Feb04-2021> <20:24:30>      7      0.00638036      0.00527666      4.3
 <Feb04-2021> <20:24:30>      8      0.00018258      0.00015050      0.0
 <Feb04-2021> <20:24:30>      9      0.00000052      0.00000043      0.0
 <Feb04-2021> <20:24:30>     10      0.00000000      0.00000000      0.0
 <Feb04-2021> <20:24:30>  SCF converged
 <Feb04-2021> <20:24:30>     11      0.00000000      0.00000000      0.0
 <Feb04-2021> <20:24:30>  >>>> POPAN
 <Feb04-2021> <20:24:30>  >>>> DEBYE
 <Feb04-2021> <20:24:30>  NORMAL TERMINATION
 <Feb04-2021> <20:24:30>  END
 <Feb04-2021> <20:24:30>  DIRAC 2019  RunTime: Feb04-2021 20:24:30  Nodes: 1  Procs: 1
 <Feb04-2021> <20:24:30>  NORMAL TERMINATION
 <Feb04-2021> <20:24:30>  END
 <Feb04-2021> <20:24:31>  ADF 2019  RunTime: Feb04-2021 20:24:31  Nodes: 1  Procs: 1
 <Feb04-2021> <20:24:31>  Sulphur (DZ, 1s frozen)
 <Feb04-2021> <20:24:31>  RunType   : CREATE
 <Feb04-2021> <20:24:31>  Net Charge: 0 (Nuclei minus Electrons)
 <Feb04-2021> <20:24:31>  Symmetry  : ATOM
  Coordinates
    Atom         X           Y           Z   (Angstrom)
    1.S         0.000000    0.000000    0.000000
 <Feb04-2021> <20:24:31>  >>>> CORORT
 <Feb04-2021> <20:24:31>  >>>> CLSMAT
 <Feb04-2021> <20:24:31>  >>>> ORTHON
 <Feb04-2021> <20:24:31>  >>>> GENPT
 <Feb04-2021> <20:24:31>  Block Length=  81
 <Feb04-2021> <20:24:31>  >>>> PTBAS
 <Feb04-2021> <20:24:31>  >>>> CYCLE
 <Feb04-2021> <20:24:31>              |Error|         MaxErr       Wt(A-DIIS)
 <Feb04-2021> <20:24:31>      1      0.00000000      0.00000000
 <Feb04-2021> <20:24:31>      2     21.51261243      7.94990220    100.0
 <Feb04-2021> <20:24:31>      3      8.52424195      2.62505450    100.0
 <Feb04-2021> <20:24:31>      4      4.38544525      1.60446246    100.0
 <Feb04-2021> <20:24:31>      5      1.43256362      0.55140611    100.0
 <Feb04-2021> <20:24:31>      6      0.89172576      0.34614537    100.0
 <Feb04-2021> <20:24:31>      7      0.16625992      0.07286926     72.6
 <Feb04-2021> <20:24:31>      8      0.10006764      0.04307754     42.5
 <Feb04-2021> <20:24:31>      9      0.01425650      0.00614423      5.2
 <Feb04-2021> <20:24:31>     10      0.00065307      0.00028041      0.0
 <Feb04-2021> <20:24:31>     11      0.00000094      0.00000039      0.0
 <Feb04-2021> <20:24:31>     12      0.00000001      0.00000000      0.0
 <Feb04-2021> <20:24:31>  SCF converged
 <Feb04-2021> <20:24:32>     13      0.00000000      0.00000000      0.0
 <Feb04-2021> <20:24:32>  >>>> POPAN
 <Feb04-2021> <20:24:32>  >>>> DEBYE
 <Feb04-2021> <20:24:32>  NORMAL TERMINATION
 <Feb04-2021> <20:24:32>  END
 <Feb04-2021> <20:24:32>  ADF 2019  RunTime: Feb04-2021 20:24:32  Nodes: 1  Procs: 3
 <Feb04-2021> <20:24:33>  Au25 + Thiol + CYST compounds.
 <Feb04-2021> <20:24:33>  RunType   : SINGLE POINT
 <Feb04-2021> <20:24:33>  WARNING: Restricted Open-Shell calculation, Unrestricted setup may be needed
 <Feb04-2021> <20:24:33>  Net Charge: 0 (Nuclei minus Electrons)
 <Feb04-2021> <20:24:33>  Symmetry  : NOSYM
 <Feb04-2021> <20:24:33>  >>>> FRAGM
  Coordinates
    Atom         X           Y           Z   (Angstrom)
    1.Au        9.747010   10.634090   10.275070
    2.Au        9.352910   10.537330   13.105220
    3.Au       12.081910   10.747610   11.914300
    4.Au       10.310820   12.974490   11.766440
    5.Au       10.571950    8.231420   11.582420
    6.Au        7.472360   11.994420   11.235420
    7.Au        7.643630    9.060060   11.353720
    8.Au       11.816710   12.218860    9.108860
    9.Au       12.089910    9.288850    9.383170
   10.Au        8.883410   12.989790    8.924560
   11.Au        7.403770   10.431550    8.647070
   12.Au        9.217740    8.246650    8.843810
   13.Au       10.138260   10.685170    7.445730
   14.Au        6.424180   10.459710   13.819930
   15.Au        8.536690    7.741520   13.912810
   16.Au       10.714250   13.347680    6.250730
   17.Au       13.047010   10.873660    6.687740
   18.Au       13.508530    7.769950   11.653170
   19.Au       11.488300    6.335080    9.475670
   20.Au        8.049280   14.919960   11.028760
   21.Au        5.838500   13.081600    8.952140
   22.Au       13.236080   13.504420   11.643840
   23.Au       11.718570   12.221550   14.467780
   24.Au        6.196760    7.715260    9.005580
   25.Au        7.861110    8.672000    6.203090
   26.S         9.898350    6.079070   12.755730
   27.S         7.062670    8.835350   15.529860
   28.S         5.319280   12.276620   12.607920
   29.S        14.344930    9.400570    8.152370
   30.S         9.112900   14.893310    7.254740
   31.S        12.193990   12.112460    4.744600
   32.S         9.858650    6.107140    7.623680
   33.S        14.249670    9.784610   12.845340
   34.S        13.253400    5.426380   10.946020
   35.S         5.431100   11.330570    7.298950
   36.S        10.192220   15.499910   12.143000
   37.S         5.706210   15.103280   10.320490
   38.S         9.906580   10.999790   15.557480
   39.S        13.359540   14.215680    9.305560
   40.S        13.856970   13.321060   14.001660
   41.S         9.752550    9.738520    5.091730
   42.S         5.821790    7.285760   11.414060
   43.S         5.623040    7.755370    6.618680
   44.C         8.632020    4.741080    8.240660
   45.C         8.614040    3.564550    7.231920
   46.H         7.643340    5.217810    8.314080
   47.H         8.950120    4.412020    9.241010
   48.N         7.520120    2.634650    7.480340
   49.H         9.584920    3.038610    7.271980
   50.H         8.502490    3.959840    6.207090
   51.C        14.702340    5.110880    9.693880
   52.C        14.202780    4.474890    8.374260
   53.H        15.400290    4.444030   10.226570
   54.H        15.197650    6.067830    9.495840
   55.N        15.244730    4.479260    7.356960
   56.H        13.341250    5.067000    8.014430
   57.H        13.817220    3.458300    8.587560
   58.C        15.539240   10.429240   11.569310
   59.C        16.570650    9.346280   11.216220
   60.H        16.026670   11.302770   12.026350
   61.H        14.993140   10.732610   10.669090
   62.N        17.447320    9.849550   10.149170
   63.H        16.022270    8.419250   10.938140
   64.H        17.182980    9.113920   12.103540
   65.C         6.336680   12.089430    5.748960
   66.C         6.021980   11.261350    4.486650
   67.H         7.414510   12.086830    5.957630
   68.H         5.979560   13.125750    5.649040
   69.N         6.821580   11.674490    3.329750
   70.H         4.949900   11.340410    4.238720
   71.H         6.237940   10.198150    4.683890
   72.C         5.739080   16.441880    8.924800
   73.C         4.483700   16.324670    8.035520
   74.H         6.647030   16.284490    8.327150
   75.H         5.785130   17.416720    9.436390
   76.N         4.459310   17.321190    6.963050
   77.H         3.571670   16.432750    8.645470
   78.H         4.453940   15.314840    7.589290
   79.C         9.509210   15.710130   13.935750
   80.C         8.304340   16.666790   13.984430
   81.H        10.340710   16.099990   14.542550
   82.H         9.230340   14.715750   14.299720
   83.N         7.723850   16.668730   15.347110
   84.H         7.565700   16.340570   13.225350
   85.H         8.632620   17.681160   13.699450
   86.C         5.701930   13.746430   13.795750
   87.C         5.150210   13.504320   15.209000
   88.H         5.241200   14.631430   13.333250
   89.H         6.790640   13.872030   13.819860
   90.N         5.612370   14.592570   16.106680
   91.H         5.484900   12.507890   15.558550
   92.H         4.047800   13.486620   15.169300
   93.C         5.613210    7.554080   15.548810
   94.C         6.101520    6.212010   16.134400
   95.N         5.060380    5.185640   16.167930
   96.H         6.485240    6.367890   17.157100
   97.H         6.942730    5.843730   15.521130
   98.H         5.262790    7.415710   14.516970
   99.H         4.815710    7.999830   16.165230
  100.C        11.269910    5.744410   14.078490
  101.C        11.727460    6.997070   14.853820
  102.H        12.111010    5.301970   13.526190
  103.H        10.834120    4.996790   14.761660
  104.N        12.804570    6.713630   15.787250
  105.H        10.865530    7.432090   15.392690
  106.H        12.072580    7.757550   14.132670
  107.C        11.094200    8.366980    5.080740
  108.C        10.722510    7.195620    4.164750
  109.H        11.213930    8.022400    6.113920
  110.H        12.018610    8.856230    4.743520
  111.N        11.713760    6.100700    4.390940
  112.H        10.785130    7.510070    3.110280
  113.H         9.680380    6.885710    4.375910
  114.C         5.719360    5.908100    6.100140
  115.C         4.690430    5.096510    6.892000
  116.H         6.733910    5.530960    6.264410
  117.H         5.496520    5.901080    5.020180
  118.N         4.813340    3.655290    6.532560
  119.H         3.681010    5.519250    6.715250
  120.H         4.913120    5.190370    7.968250
  121.C         4.271990    8.388270   11.769800
  122.C         3.905690    9.349760   10.628380
  123.H         4.511980    8.956120   12.683670
  124.H         3.451420    7.678350   11.968970
  125.N         2.823160   10.295790   10.985390
  126.H         3.589730    8.789070    9.733400
  127.H         4.784200    9.953740   10.356500
  128.C        14.349490    7.763270    7.148890
  129.C        14.908140    7.898250    5.730050
  130.H        13.317500    7.393590    7.121720
  131.H        14.972750    7.068090    7.721920
  132.N        14.729740    6.574540    5.075050
  133.H        15.984110    8.137450    5.773790
  134.H        14.397090    8.732220    5.205300
  135.C        13.700920   13.260820    4.332000
  136.C        14.962990   12.414590    4.021440
  137.H        13.876840   13.919190    5.190200
  138.H        13.385750   13.863110    3.463900
  139.N        16.197250   13.182890    4.045380
  140.H        14.834450   11.914370    3.044270
  141.H        15.042670   11.616350    4.782340
  142.C        10.287230   16.175190    8.123530
  143.C         9.465530   17.307970    8.766100
  144.H        10.873560   15.639400    8.878930
  145.H        10.959970   16.559880    7.340790
  146.N        10.285760   18.234600    9.555940
  147.H         8.716070   16.867120    9.447560
  148.H         8.922780   17.875350    7.990540
  149.C         8.687880   12.396200   16.067910
  150.C         9.342320   13.383490   17.045690
  151.H         7.837840   11.886940   16.544970
  152.H         8.346320   12.904810   15.159540
  153.N         8.374930   14.457070   17.387160
  154.H        10.272600   13.774830   16.589750
  155.H         9.631030   12.843010   17.962450
  156.C        13.569140   15.145930   14.561790
  157.C        13.265830   15.221670   16.069230
  158.H        14.508180   15.668230   14.315520
  159.H        12.747400   15.560100   13.958840
  160.N        14.289050   14.697800   16.971440
  161.H        12.328470   14.676560   16.270300
  162.H        13.087280   16.285990   16.319310
  163.C        15.181550   13.664570    8.948520
  164.C        15.434280   13.633080    7.437850
  165.H        15.356870   12.680050    9.401020
  166.H        15.812540   14.416470    9.448750
  167.N        16.834350   13.320800    7.064240
  168.H        15.168770   14.604540    6.990280
  169.H        14.786040   12.859850    6.992660
  170.H         4.781530    4.769750   15.278410
  171.H         4.319220    5.280550   16.863280
  172.H         6.452120   14.347820   16.674760
  173.H         4.863940   15.008710   16.671610
  174.H        13.759640    6.665880   15.439600
  175.H        12.598230    6.246980   16.667440
  176.H         8.407160   15.277520   16.746000
  177.H         8.411370   14.738380   18.374030
  178.H        14.375820   13.680100   17.013090
  179.H        15.179620   15.199580   16.994430
  180.H        17.511250   14.023030    7.392120
  181.H        17.123180   12.374990    7.347010
  182.H        17.047820    9.802260    9.209180
  183.H        18.437550    9.607680   10.210040
  184.H        15.138380    5.099660    6.535660
  185.H        15.854350    3.667640    7.277310
  186.H         7.577790    2.064400    8.326090
  187.H         6.575990    2.928740    7.164180
  188.H        11.745980    5.429100    3.611120
  189.H        11.520910    5.612540    5.278350
  190.H         4.675350    3.484250    5.526470
  191.H         4.180920    3.058190    7.083910
  192.H         3.129290   11.070120   11.591110
  193.H         1.961700    9.843530   11.320130
  194.H         6.639990   12.608680    2.955160
  195.H         7.809180   11.407210    3.350590
  196.H         4.233080   18.284180    7.216570
  197.H         5.146270   17.217220    6.214210
  198.H         6.863790   16.088300   15.446910
  199.H         7.623410   17.602420   15.758710
  200.H        10.957500   18.802680    9.031620
  201.H        10.654430   17.842810   10.428440
  202.H        16.388920   13.829060    3.281160
  203.H        16.616540   13.363190    4.971630
  204.H        15.397070    6.413700    4.309220
  205.H        13.743820    6.429380    4.765880
  206.O         2.116290   12.466000    9.416110
  207.C         2.133360   11.305610    9.064670
  208.O         2.009780   10.325370    8.361330
 <Feb04-2021> <20:24:36>  >>>> CORORT
 <Feb04-2021> <20:24:47>  >>>> CLSMAT
 <Feb04-2021> <20:24:50>  >>>> ORTHON
 <Feb04-2021> <20:25:02>  >>>> GENPT
 <Feb04-2021> <20:25:08>  Block Length= 128
 <Feb04-2021> <20:25:28>  >>>> PTBAS
 <Feb04-2021> <20:28:21>  >>>> CYCLE
 <Feb04-2021> <20:30:06>              |Error|         MaxErr       Wt(A-DIIS)
 <Feb04-2021> <20:30:06>      1      8.14289768      0.40694615
 <Feb04-2021> <20:31:26>      2      4.75830799      0.35426527    100.0
 <Feb04-2021> <20:32:46>      3     13.64080287      0.67872420    100.0
 <Feb04-2021> <20:34:07>      4      4.32698445      0.40220377    100.0
 <Feb04-2021> <20:35:27>      5      7.14713069      0.39254372    100.0
 <Feb04-2021> <20:36:47>      6      2.38921857      0.25900768    100.0
 <Feb04-2021> <20:38:09>      7     11.84775302      1.33336494    100.0
 <Feb04-2021> <20:39:30>      8      3.95978518      0.43366670    100.0
 <Feb04-2021> <20:40:52>      9      3.20617688      0.30763238    100.0
 <Feb04-2021> <20:42:12>     10      2.10285798      0.31650046    100.0
 <Feb04-2021> <20:43:32>     11      1.55930437      0.23801980    100.0
 <Feb04-2021> <20:44:52>     12      1.16924395      0.17317936    100.0
 <Feb04-2021> <20:46:13>     13      1.84017677      0.23444642    100.0
 <Feb04-2021> <20:47:32>     14      1.00078597      0.13635263    100.0
 <Feb04-2021> <20:48:52>     15      1.08753560      0.11617105    100.0
 <Feb04-2021> <20:50:12>     16      0.90114410      0.18241410    100.0
 <Feb04-2021> <20:51:32>     17      0.29723323      0.04141349     40.8
 <Feb04-2021> <20:52:52>     18      0.34883893      0.04146557    100.0
 <Feb04-2021> <20:54:11>     19      0.72728783      0.16764598    100.0
 <Feb04-2021> <20:55:32>     20      0.63985135      0.14268102    100.0
 <Feb04-2021> <20:56:51>     21      0.22738352      0.01767896     16.8
 <Feb04-2021> <20:58:11>     22      0.05393838      0.00489096      3.9
 <Feb04-2021> <20:59:31>     23      0.02966990      0.00311274      2.1
 <Feb04-2021> <21:00:51>     24      0.02165950      0.00200415      1.0
 <Feb04-2021> <21:02:11>     25      0.01044949      0.00108879      0.1
 <Feb04-2021> <21:03:30>     26      0.00707533      0.00136647      0.1
 <Feb04-2021> <21:04:50>     27      0.00461242      0.00109973      0.1
 <Feb04-2021> <21:06:10>     28      0.00482377      0.00103629      0.0
 <Feb04-2021> <21:07:32>     29      0.00445869      0.00085510      0.0
 <Feb04-2021> <21:08:52>     30      0.01222378      0.00235913    100.0
 <Feb04-2021> <21:10:12>     31      0.00644442      0.00130577    100.0
 <Feb04-2021> <21:11:33>     32      0.00780750      0.00083617      0.0
 <Feb04-2021> <21:12:53>     33      0.00059077      0.00009051      0.0
 <Feb04-2021> <21:14:13>     34      0.00028415      0.00002919      0.0
 <Feb04-2021> <21:15:33>     35      0.00014869      0.00001375      0.0
 <Feb04-2021> <21:16:53>     36      0.00005702      0.00000851      0.0
 <Feb04-2021> <21:18:13>     37      0.00006703      0.00000711      0.0
 <Feb04-2021> <21:19:33>     38      0.00003895      0.00000337      0.0
 <Feb04-2021> <21:20:54>     39      0.00004636      0.00000343      0.0
 <Feb04-2021> <21:22:13>     40      0.00002880      0.00000203      0.0
 <Feb04-2021> <21:23:33>     41      0.00000402      0.00000044      0.0
 <Feb04-2021> <21:23:53>  SCF converged
 <Feb04-2021> <21:24:54>     42      0.00000144      0.00000020      0.0
 <Feb04-2021> <21:24:58>  WARNING: partially occupied orbitals
 <Feb04-2021> <21:24:58>   Solutions with partially occupied orbitals may not be
 <Feb04-2021> <21:24:58>   lowest in energy. You might consider lowering the
 <Feb04-2021> <21:24:58>   symmetry in the input and explicitly specifying integer
 <Feb04-2021> <21:24:58>   occupations. In that case always check that you obtain
 <Feb04-2021> <21:24:58>   an aufbau solution.
 <Feb04-2021> <21:25:55>  >>>> TOTEN
 <Feb04-2021> <21:42:56>  >>>> POPAN
 <Feb04-2021> <21:42:58>  >>>> DEBYE
 <Feb04-2021> <21:43:07>  >>>> AMETS
 <Feb04-2021> <21:43:21>   Bond Energy         -36.86380360 a.u.
 <Feb04-2021> <21:43:21>   Bond Energy       -1003.11513489 eV
 <Feb04-2021> <21:43:21>   Bond Energy      -23132.39       kcal/mol
 <Feb04-2021> <21:43:21>  >>>> POPUL
 <Feb04-2021> <21:43:35>  NORMAL TERMINATION with warnings
 <Feb04-2021> <21:43:36>  END
