
 *******************************************************************************
 *                                                                             *
 *  -------------------------------------                                      *
 *   Amsterdam Density Functional  (ADF)         2019                          *
 *  -------------------------------------                                      *
 *                                               r74351 2019-04-25             *
 *                                                                             *
 *                                                                             *
 *                            =====================                            *
 *                            |                   |                            *
 *                            |     D I R A C     |                            *
 *                            |                   |                            *
 *                            =====================                            *
 *                                                                             *
 *                                                                             *
 *   Online information and documentation:  https://www.scm.com/support/       *
 *   E-mail:  support@scm.com   info@scm.com                                   *
 *                                                                             *
 *   Scientific publications using ADF results must be properly referenced     *
 *   See the User Manuals (or the web site) for recommended citations          *
 *   The terms and conditions of the End User License Agreement apply to       *
 *   the use of ADF, https://www.scm.com/license-terms/                        *
 *                                                                             *
 **********************  x86_64_linux_intel / intelmpi  ************************
 
 Licensed to: Dr. Emilie Guidez / UC Denver / Denver / CO / USA
 SCM User ID: u20218
  
 DIRAC 2019  RunTime: Feb04-2021 20:23:52  Nodes: 1  Procs: 1

 Temporary files are created in /home/chemistry/limjae/scr/kid_0.1578381172

1
 HYDROGEN ATOM RELATIVISTIC, Point Nuc, A and c from libtc   
 N J RN H ZN XION ANUC CLIGHT
 5000    1100.00000000197.36710137  1.00000000  0.00000000    1.007825  0.1370360E+03
  PH   PHI     EPS        DEL        DELRVR
  0.30  0.30     2500.00  0.00001000  0.00001000
 IDIRC  NC1  NDEBU NPRIN  IPUN IRCOR IWCOR
   1   300     0     0     0     0     0
   XALPHA      XLATTER      RNUC
  0.70000000  0.00000000  0.00000000 Point Charge
   XN   XL   XJ      XE          XZ      XDELL
  1.0  0.0  0.5      -1.000       1.000     0.00000
 ICORP=  0  NPCL=  0  DEMP=0.00  PEPS=0.000000
 R(1)=  0.1000000E-08 D=  0.1005080E+01 RNUC=  0.0000000E+00
 converged at cycle   32  DENSITY AVERAGING    0.2400
  MAXIMUM ERROR IN R.V(R) IS   0.79874357E-05
 Q,EY,EV,EZ,ESUM,ETOT,RHO  0.100000E+01 -0.266614E+00 -0.619969E+00 -0.910779E+00 -0.203940E+00 -0.415998E+00  0.337036E-17


 DIRAC CALCULATION
1                    HYDROGEN ATOM RELATIVISTIC, Point Nuc, A and c from libtc


 EXCHANGE COEFFICIENT=  0.7000000           TAIL CORRECTION=  0.           NUCLEAR RADIUS=  0.000E+00
0                       ORBITAL    N    L    J     ELECTRONS     EIGENVALUE                DELTA OF EIGENV.

                          1S1/2  1.0  0.0  0.5     1.000       -0.2039397E+00                 0.2720093E-06


                                        NUCLEAR CHARGE=    1.000000
                            INTEGRAL OF CHARGE DENSITY=    1.000000
                           SUM OF THE ORBITAL ENERGIES=     -0.2039
                                          TOTAL ENERGY=     -0.4160
                                        KINETIC ENERGY=      0.4160
                             NUCLEAR ATTRACTION ENERGY=     -0.9108
                             ELECTRON REPULSION ENERGY=      0.2787
                                       EXCHANGE ENERGY=     -0.2000

 *******************************************************************************

                             D I R A C   E X I T
 NORMAL TERMINATION



 =================
 Timing Statistics
 =================
  
 Total Used :                     CPU=        0.06      System=        0.01     Elapsed=        0.12

 Calls  Section                     ( Mean, Percentage )
 ---------------------------------------------------------------------------------------------------
     2  ><      ................      0.00    0.02             0.00    0.16             0.00    0.02
     1  EXIT PROCEDURE .........      0.06   99.98             0.01   99.84             0.12   99.98


 Currently Open Files (EXIT00)
 ====================

 Unit    Access Format  Status   Type       Ident (file)
 -------------------------------------------------------
   3      SEQ    FORM   TRANSP  NORMAL      LOGFILE
                                          ( logfile )
 
Create H   file=DZ-H
XC
 GGA PBE
End
relativistic ZORA
Corepotentials t12.rel
End

 *******************************************************************************
 *                                                                             *
 *  -------------------------------------                                      *
 *   Amsterdam Density Functional  (ADF)         2019                          *
 *  -------------------------------------                                      *
 *                                               r74351 2019-04-25             *
 *                                                                             *
 *                                                                             *
 *                              =================                              *
 *                              |               |                              *
 *                              |     A D F     |                              *
 *                              |               |                              *
 *                              =================                              *
 *                                                                             *
 *                                                                             *
 *   Online information and documentation:  https://www.scm.com/support/       *
 *   E-mail:  support@scm.com   info@scm.com                                   *
 *                                                                             *
 *   Scientific publications using ADF results must be properly referenced     *
 *   See the User Manuals (or the web site) for recommended citations          *
 *   The terms and conditions of the End User License Agreement apply to       *
 *   the use of ADF, https://www.scm.com/license-terms/                        *
 *                                                                             *
 **********************  x86_64_linux_intel / intelmpi  ************************
 
 Licensed to: Dr. Emilie Guidez / UC Denver / Denver / CO / USA
 SCM User ID: u20218
  
 ADF 2019  RunTime: Feb04-2021 20:23:52  Nodes: 1  Procs: 1

 Temporary files are created in /home/chemistry/limjae/scr/kid_0.134524990

 Hydrogen (DZ)



 ===========================
 A T T A C H E D   F I L E S
 ===========================
  
 CREATE - Data File:    DZ-H
                        Hydrogen (DZ)
 Core Potentials:
         file : t12.rel



 ===============================
 M O D E L   P A R A M E T E R S
 ===============================
  
 DENSITY FUNCTIONAL POTENTIAL (scf)
    LDA:                               PW92                                    == Not Default ==
    Gradient Corrections:              PBEc PBEx                               == Not Default ==

 SPIN  (restricted / unrestr.)
    Molecule:                          Restricted                               

 OTHER ASPECTS
    Relativistic Corrections:          scalar (ZORA,MAPA)                      == Not Default ==

    Nuclear Charge Density Model:      Point Charge Nuclei                      
    Core Treatment:                    Frozen Orbital(s)                        

    Hyperfine or Zeeman Interaction:   ---                                      



 =====================================
 S Y M M E T R Y ,   E L E C T R O N S
 =====================================
  
 Symmetry: ATOM

 Irreducible Representations, including subspecies
 -------------------------------------------------
 S
 P:x  P:y  P:z
 D:z2  D:x2-y2  D:xy  D:xz  D:yz
 F:z3  F:z  F:xyz  F:z2x  F:z2y  F:x  F:y


 Configuration of Valence Electrons
 ==================================

          Occupation Numbers
          -------------------------------------------------
 S        1
 P        0
 D        0
 F        0
          -------------------------------------------------

 Total:   1

 Net Charge: 0 (Nuclei minus Electrons)

 Preset values for MO occupations will be applied through SCF cycle no. 1000000
 Thereafter, the program will assign electrons to MOs that are spatially
 similar to the occupied MOs in a "reference" cycle ("KeepOrbitals").
 The reference cycle is always the PREVIOUS cycle: it will evolve with
 the SCF procedure.



 ================================
 (Slater-type)  F U N C T I O N S  ***  (Basis and Fit)  ***
 ================================
  

 Atom Type    1  (H)
 ==============

 Valence Basis Sets:   2
 -----------------------
   1 S    0.760000
   1 S    1.280000


 BAS: List of all Elementary Cartesian Basis Functions
 =====================================================

 The numbering in the list below (to the right of the function characteristics) is referred
 to in print-outs of MO eigenvectors and Mulliken populations in the BAS representation
 (as contrasted to the SFO representation).

 Notes:
 1. The functions are characterized by a polynomial prefactor (powers of x,y,z and r) and
    an exponential decay factor alpha.
 2. Since the basis sets are specific for an atom TYPE, the individual functions occur on
    all atoms of that type.
 3. The word 'Core' in the left margin signals that it is a Core Function (CF) : not a
    degree of freedom in the valence set, but only used to ensure orthogonalization of
    the other valence basis functions on the frozen Core Orbitals.


 (power of) X  Y  Z  R     Alpha  on Atom
            ==========     =====     ==========

 H                                    1
                                  ---------------------------------------------------------------------------
            0  0  0  0     0.760      1
            0  0  0  0     1.280      2

 Total number of charge fitting functions (nprimf)        50
 Total number of Cartesian basis functions (naos)          2
 Total number of Cartesian core functions  (ncos)          0



 BAS: List of all Elementary Cartesian Basis Functions
 =====================================================

 The numbering in the list below (to the right of the function characteristics) is referred
 to in print-outs of MO eigenvectors and Mulliken populations in the BAS representation
 (as contrasted to the SFO representation).

 Notes:
 1. The functions are characterized by a polynomial prefactor (powers of x,y,z and r) and
    an exponential decay factor alpha.
 2. Since the basis sets are specific for an atom TYPE, the individual functions occur on
    all atoms of that type.
 3. The word 'Core' in the left margin signals that it is a Core Function (CF) : not a
    degree of freedom in the valence set, but only used to ensure orthogonalization of
    the other valence basis functions on the frozen Core Orbitals.


 (power of) X  Y  Z  R     Alpha  on Atom
            ==========     =====     ==========

 H                                    1
                                  ---------------------------------------------------------------------------
            0  0  0  0     0.760      1
            0  0  0  0     1.280      2
1
 ***************************************************************************************************



                                              ***********************
                                              *  T E C H N I C A L  *
                                              ***********************
  



 =============================================================
 P A R A L L E L I Z A T I O N  and  V E C T O R I Z A T I O N
 =============================================================
  
 Nr of parallel processes:                                1
 Maximum vector length in NumInt loops:                 128



 =====================
 S C F   U P D A T E S
 =====================
  
 Max. nr. of cycles:                               300
 Convergence criterion:                              0.0000000100
   secondary criterion:                              0.0000000100

 Mix parameter (when DIIS does not apply):           0.2000000000
 Special mix parameter for the first cycle:          1.0000000000
 Mixed ADIIS+SDIIS will be used                  
    Max number of expansion vectors:                10
    Pure ADIIS when Max([F,P]) is above              0.1000000000
    Pure SDIIS when Max([F,P]) is below              0.0010000000
 Automatic ElectronSmearing (in case of problematic SCF convergence) disabled



 =================
 P R E C I S I O N  ***  (General: NumInt, NeglectFunctionTails, ...)  ***
 =================
  

 NumInt:           Target precision:                12.0000000000
 -------           Initial precision:               10.0000000000
                   Min. precision (optimization):   10.0000000000

 Neglect Functions:          Basis functions:        0.1000000000E-13
 ------------------          Fit functions:          0.1000000000E-13



 ===========================
 L I N E A R   S C A L I N G
 ===========================
  

 Cut-off radii density fit:                        0.1000000000E-97
 Overlap cut-off criterion AO matrix elements:     0.1000000000E-97
 Cut-offs for Coulomb potential and fitted density:0.1000000000E-97
 Cut-off criterion for Coulomb multipole terms:    0.1000000000E-97
 Progressive Convergence parameter:                 0.000000000    
1
 ***************************************************************************************************



                                            ***************************
                                            *  C O M P U T A T I O N  *
                                            ***************************
  

 Number of elements of the density matrix on this node (used, total):         3         3



 ===========================================
 Numerical Integration : Fuzzy Cells (Becke)
 ===========================================
  
 Becke grid quality: VERYGOOD       
  
 Lebedev angular grid order:             min:  13 max:  41
 Nr. of radial points:                   min:  64 max:  64

 Total nr. of points:         64
 Nr. of blocks:                1
 Block length:                64
 Nr. of dummy points:          0


 Test of Precision of the Numerical Integration Grid
 ===================================================

 Integral of the Total Core Density:                   0.00000000000000



 ========================
 Density Fitting (zlmFit)
 ========================
  
 ZlmFit Fit Quality: VERYGOOD       
  
 Max L-expansion:                        min:   0 max:   0
 Nr. of radial interpolation points:     min: 120 max: 120



 =====
 S C F  ***  ScaSCF  ***
 =====
  

 CYCLE    1
 SCF Error: norm([F,P])=      0.000000000000, max([F,P])=      0.000000000000
 orbitals (Q,E):
 ---------------
 S :1...2            ( 1.00    -0.4983)  ( 0.00     0.1718)

 CYCLE    2
 SCF Error: norm([F,P])=      0.033001933656, max([F,P])=      0.033001933656
 orbitals (Q,E):
 ---------------
 S :1...2            ( 1.00    -0.2268)  ( 0.00     0.4005)

 CYCLE    3
  SDIIS (wt  0.000):  0.1528  0.8472
 A-DIIS (wt  1.000):  0.0000  1.0000
  DIIS coefficients:  0.0000  1.0000
 SCF Error: norm([F,P])=      0.005954454000, max([F,P])=      0.005954454000
 orbitals (Q,E):
 ---------------
 S :1...2            ( 1.00    -0.2417)  ( 0.00     0.3884)

 CYCLE    4
  SDIIS (wt  1.000):  0.1463  0.8537
 A-DIIS (wt  0.000):  0.0000  1.0000
  DIIS coefficients:  0.1463  0.8537
 SCF Error: norm([F,P])=      0.001020399433, max([F,P])=      0.001020399433
 orbitals (Q,E):
 ---------------
 S :1...2            ( 1.00    -0.2394)  ( 0.00     0.3902)

 CYCLE    5
  SDIIS (wt  1.000):  0.0014  0.9986
  DIIS coefficients:  0.0014  0.9986
 SCF Error: norm([F,P])=      0.000001436995, max([F,P])=      0.000001436995
 orbitals (Q,E):
 ---------------
 S :1...2            ( 1.00    -0.2394)  ( 0.00     0.3902)

 CYCLE    6
  SDIIS (wt  1.000): -0.0002  1.0002
  DIIS coefficients: -0.0002  1.0002
 SCF Error: norm([F,P])=      0.000000000334, max([F,P])=      0.000000000334
 orbitals (Q,E):
 ---------------
 S :1...2            ( 1.00    -0.2394)  ( 0.00     0.3902)

 SCF CONVERGED

 CYCLE    7
1
 ***************************************************************************************************



                                                *******************
                                                *  R E S U L T S  *
                                                *******************
  
 *** Using FIT density in Focky
  SDIIS (wt  1.000):  0.0000  1.0000
  DIIS coefficients:  0.0000  1.0000
 SCF Error: norm([F,P])=      0.000000000000, max([F,P])=      0.000000000000

 Scaled ZORA Orbital Energies, per Irrep and Spin:
 =================================================
                        Occup              E (au)              E (eV)       Diff (eV) with prev. cycle
                        -----      --------------------        ------       --------------------------
 S
               1        1.000     -0.23939248892723E+00        -6.514               9.37E-14
               2        0.000      0.39021645958604E+00        10.618


 Partially Occupied:
               1 S                -0.23939248892723E+00
  
 LUMO :        2 S                 0.39021645958604E+00
  


 All Electron Calculation, thus no Orbital Energies of the Core Orbitals are calculated



 =======================================
 M U L L I K E N   P O P U L A T I O N S
 =======================================
  
 The survey below gives for each atom:
 a) the total charge (Z minus electrons)
 b) the net spin polarization (nr of electrons spin-A minus spin-B)
 c) for each spin the atomic electron valence density (integrated) per L-value.

 Atom              Charge    Spin density          S         P         D         F
 ----              ------    ------------       ------    ------    ------    ------
 1 H              -0.0000                       1.0000    0.0000    0.0000    0.0000

 Populations of individual BAS functions
 ----------------------------------------
 1 H            0.6465  0.3535

 Gross Charges per Atom (Z minus electrons)
 ==========================================
            -0.0000
 Net Total: -0.00000000



 =======================================================================
 Electrostatic potential at the Nuclei due to electrons and other nuclei
 =======================================================================
  
         Atom                  Potential
         ----                  ---------
     1)   H                   0.94379605
 
 
 ========================
 No memory problems found
 ========================
 
 Maximum number of active allocate calls:         264
 
 *******************************************************************************

                             A D F   E X I T
 NORMAL TERMINATION



 =================
 Timing Statistics
 =================
  
 Total Used :                     CPU=        0.50      System=        0.09     Elapsed=        0.86

 Calls  Section                     ( Mean, Percentage )
 ---------------------------------------------------------------------------------------------------
     3  ><      ................      0.00    1.27             0.00    2.61             0.00    1.40
     1  INIT    ................      0.10   18.99             0.02   24.93             0.16   18.58
     1  GEOMET  ................      0.03    5.73             0.02   17.27             0.08    9.27
     1  INPUTA  ................      0.01    1.07             0.00    4.68             0.02    2.68
     1  MAINSY  ................      0.03    5.11             0.00    1.52             0.05    5.56
     1  SYMFIT  ................      0.00    0.41             0.00    1.14             0.00    0.43
     1  CORORT  ................      0.00    0.42             0.00    0.15             0.00    0.52
     1  SYMORB  ................      0.00    0.37             0.00    0.00             0.00    0.34
     1  CLSMAT  ................      0.01    1.54             0.00    1.00             0.01    1.59
     1  ORTHON  ................      0.01    2.44             0.00    2.29             0.02    2.03
     1  GENPT   ................      0.02    3.31             0.00    4.62             0.03    3.83
     1  PTBAS   ................      0.00    0.98             0.00    2.37             0.01    1.65
     7  FOCKY   ................      0.03   43.09             0.00   14.13             0.04   32.00
     7  FOCKTR  ................      0.00    1.45             0.00    0.63             0.00    1.83
     7  SDIIS   ................      0.00    4.86             0.00   14.17             0.01    8.90
     1  COREPS  ................      0.02    3.33             0.00    3.57             0.03    3.38
     1  POPAN   ................      0.00    0.94             0.00    1.79             0.01    1.35
     1  DEBYE   ................      0.00    0.51             0.00    0.78             0.01    0.68
     1  EXIT PROCEDURE .........      0.02    4.19             0.00    2.36             0.03    3.98


 Currently Open Files (EXIT00)
 ====================

 Unit    Access Format  Status   Type       Ident (file)
 -------------------------------------------------------
   3      SEQ    FORM   TRANSP  NORMAL      LOGFILE
                                          ( logfile )

 ***************************************************************************************************
 (LOGFILE)
 <Feb04-2021> <20:23:52>  DIRAC 2019  RunTime: Feb04-2021 20:23:52  Nodes: 1  Procs: 1
 <Feb04-2021> <20:23:52>  NORMAL TERMINATION
 <Feb04-2021> <20:23:52>  END
 <Feb04-2021> <20:23:52>  ADF 2019  RunTime: Feb04-2021 20:23:52  Nodes: 1  Procs: 1
 <Feb04-2021> <20:23:52>  Hydrogen (DZ)
 <Feb04-2021> <20:23:52>  RunType   : CREATE
 <Feb04-2021> <20:23:52>  Net Charge: 0 (Nuclei minus Electrons)
 <Feb04-2021> <20:23:52>  Symmetry  : ATOM
  Coordinates
    Atom         X           Y           Z   (Angstrom)
    1.H         0.000000    0.000000    0.000000
 <Feb04-2021> <20:23:52>  >>>> CORORT
 <Feb04-2021> <20:23:52>  >>>> CLSMAT
 <Feb04-2021> <20:23:52>  >>>> ORTHON
 <Feb04-2021> <20:23:53>  >>>> GENPT
 <Feb04-2021> <20:23:53>  Block Length=  64
 <Feb04-2021> <20:23:53>  >>>> PTBAS
 <Feb04-2021> <20:23:53>  >>>> CYCLE
 <Feb04-2021> <20:23:53>              |Error|         MaxErr       Wt(A-DIIS)
 <Feb04-2021> <20:23:53>      1      0.00000000      0.00000000
 <Feb04-2021> <20:23:53>      2      0.03300193      0.03300193
 <Feb04-2021> <20:23:53>      3      0.00595445      0.00595445    100.0
 <Feb04-2021> <20:23:53>      4      0.00102040      0.00102040      0.0
 <Feb04-2021> <20:23:53>      5      0.00000144      0.00000144      0.0
 <Feb04-2021> <20:23:53>      6      0.00000000      0.00000000      0.0
 <Feb04-2021> <20:23:53>  SCF converged
 <Feb04-2021> <20:23:53>      7      0.00000000      0.00000000      0.0
 <Feb04-2021> <20:23:53>  >>>> POPAN
 <Feb04-2021> <20:23:53>  >>>> DEBYE
 <Feb04-2021> <20:23:53>  NORMAL TERMINATION
 <Feb04-2021> <20:23:53>  END

 *******************************************************************************
 *                                                                             *
 *  -------------------------------------                                      *
 *   Amsterdam Density Functional  (ADF)         2019                          *
 *  -------------------------------------                                      *
 *                                               r74351 2019-04-25             *
 *                                                                             *
 *                                                                             *
 *                            =====================                            *
 *                            |                   |                            *
 *                            |     D I R A C     |                            *
 *                            |                   |                            *
 *                            =====================                            *
 *                                                                             *
 *                                                                             *
 *   Online information and documentation:  https://www.scm.com/support/       *
 *   E-mail:  support@scm.com   info@scm.com                                   *
 *                                                                             *
 *   Scientific publications using ADF results must be properly referenced     *
 *   See the User Manuals (or the web site) for recommended citations          *
 *   The terms and conditions of the End User License Agreement apply to       *
 *   the use of ADF, https://www.scm.com/license-terms/                        *
 *                                                                             *
 **********************  x86_64_linux_intel / intelmpi  ************************
 
 Licensed to: Dr. Emilie Guidez / UC Denver / Denver / CO / USA
 SCM User ID: u20218
  
 DIRAC 2019  RunTime: Feb04-2021 20:23:53  Nodes: 1  Procs: 1

 Temporary files are created in /home/chemistry/limjae/scr/kid_0.2123991421

1
 NITROGEN ATOM 1s CORE RELATIVISTIC, Point Nuc, A and c from 
 N J RN H ZN XION ANUC CLIGHT
 5000    4100.00000000197.36710137  7.00000000  0.00000000   14.003074  0.1370360E+03
  PH   PHI     EPS        DEL        DELRVR
  0.30  0.30     2500.00  0.00001000  0.00001000
 IDIRC  NC1  NDEBU NPRIN  IPUN IRCOR IWCOR
   1   300     0     0     0     0     1
   XALPHA      XLATTER      RNUC
  0.70000000  0.00000000  0.00000000 Point Charge
   XN   XL   XJ      XE          XZ      XDELL
  1.0  0.0  0.5      -5.000       2.000     0.00000
  2.0  0.0  0.5      -1.000       2.000     0.00000
  2.0  1.0  0.5      -1.000       2.000     0.00000
  2.0  1.0  1.5      -1.000       1.000     0.00000
 ICORP=  0  NPCL=  0  DEMP=0.00  PEPS=0.000000
 R(1)=  0.1000000E-08 D=  0.1005080E+01 RNUC=  0.0000000E+00
 converged at cycle   25  DENSITY AVERAGING    0.3000
  MAXIMUM ERROR IN R.V(R) IS   0.97905511E-05
 Q,EY,EV,EZ,ESUM,ETOT,RHO  0.700000E+01 -0.796419E+01 -0.840156E+02 -0.127663E+03 -0.300692E+02 -0.538837E+02  0.270066E-14


 DIRAC CALCULATION
1                    NITROGEN ATOM 1s CORE RELATIVISTIC, Point Nuc, A and c from libtc


 EXCHANGE COEFFICIENT=  0.7000000           TAIL CORRECTION=  0.           NUCLEAR RADIUS=  0.000E+00
0                       ORBITAL    N    L    J     ELECTRONS     EIGENVALUE                DELTA OF EIGENV.

                          1S1/2  1.0  0.0  0.5     2.000       -0.1403720E+02                 0.4993583E-04
                          2S1/2  2.0  0.0  0.5     2.000       -0.6456810E+00                 0.6544571E-05
                          2P1/2  2.0  1.0  0.5     2.000       -0.2347008E+00                 0.5687228E-05
                          2P3/2  2.0  1.0  1.5     1.000       -0.2339893E+00                 0.5679256E-05


                                        NUCLEAR CHARGE=    7.000000
                            INTEGRAL OF CHARGE DENSITY=    7.000000
                           SUM OF THE ORBITAL ENERGIES=    -30.0692
                                          TOTAL ENERGY=    -53.8837
                                        KINETIC ENERGY=     53.9465
                             NUCLEAR ATTRACTION ENERGY=   -127.6627
                             ELECTRON REPULSION ENERGY=     25.8056
                                       EXCHANGE ENERGY=     -5.9731

 *******************************************************************************

                             D I R A C   E X I T
 NORMAL TERMINATION



 =================
 Timing Statistics
 =================
  
 Total Used :                     CPU=        0.11      System=        0.01     Elapsed=        0.19

 Calls  Section                     ( Mean, Percentage )
 ---------------------------------------------------------------------------------------------------
     2  ><      ................      0.00    0.01             0.00    0.05             0.00    0.01
     1  EXIT PROCEDURE .........      0.11   99.99             0.01   99.95             0.19   99.99


 Currently Open Files (EXIT00)
 ====================

 Unit    Access Format  Status   Type       Ident (file)
 -------------------------------------------------------
   3      SEQ    FORM   TRANSP  NORMAL      LOGFILE
                                          ( logfile )
 
Create N   file=DZ-N.1s
XC
 GGA PBE
End
relativistic ZORA
Corepotentials t12.rel
End

 *******************************************************************************
 *                                                                             *
 *  -------------------------------------                                      *
 *   Amsterdam Density Functional  (ADF)         2019                          *
 *  -------------------------------------                                      *
 *                                               r74351 2019-04-25             *
 *                                                                             *
 *                                                                             *
 *                              =================                              *
 *                              |               |                              *
 *                              |     A D F     |                              *
 *                              |               |                              *
 *                              =================                              *
 *                                                                             *
 *                                                                             *
 *   Online information and documentation:  https://www.scm.com/support/       *
 *   E-mail:  support@scm.com   info@scm.com                                   *
 *                                                                             *
 *   Scientific publications using ADF results must be properly referenced     *
 *   See the User Manuals (or the web site) for recommended citations          *
 *   The terms and conditions of the End User License Agreement apply to       *
 *   the use of ADF, https://www.scm.com/license-terms/                        *
 *                                                                             *
 **********************  x86_64_linux_intel / intelmpi  ************************
 
 Licensed to: Dr. Emilie Guidez / UC Denver / Denver / CO / USA
 SCM User ID: u20218
  
 ADF 2019  RunTime: Feb04-2021 20:23:54  Nodes: 1  Procs: 1

 Temporary files are created in /home/chemistry/limjae/scr/kid_0.2108530284

 Nitrogen (DZ, 1s frozen)



 ===========================
 A T T A C H E D   F I L E S
 ===========================
  
 CREATE - Data File:    DZ-N.1s
                        Nitrogen (DZ, 1s frozen)
 Core Potentials:
         file : t12.rel



 ===============================
 M O D E L   P A R A M E T E R S
 ===============================
  
 DENSITY FUNCTIONAL POTENTIAL (scf)
    LDA:                               PW92                                    == Not Default ==
    Gradient Corrections:              PBEc PBEx                               == Not Default ==

 SPIN  (restricted / unrestr.)
    Molecule:                          Restricted                               

 OTHER ASPECTS
    Relativistic Corrections:          scalar (ZORA,MAPA)                      == Not Default ==

    Nuclear Charge Density Model:      Point Charge Nuclei                      
    Core Treatment:                    Frozen Orbital(s)                        

    Hyperfine or Zeeman Interaction:   ---                                      



 =====================================
 S Y M M E T R Y ,   E L E C T R O N S
 =====================================
  
 Symmetry: ATOM

 Irreducible Representations, including subspecies
 -------------------------------------------------
 S
 P:x  P:y  P:z
 D:z2  D:x2-y2  D:xy  D:xz  D:yz
 F:z3  F:z  F:xyz  F:z2x  F:z2y  F:x  F:y


 Configuration of Valence Electrons
 ==================================

          Occupation Numbers
          -------------------------------------------------
 S        2
 P        3
 D        0
 F        0
          -------------------------------------------------

 Total:   5

 Net Charge: 0 (Nuclei minus Electrons)

 Preset values for MO occupations will be applied through SCF cycle no. 1000000
 Thereafter, the program will assign electrons to MOs that are spatially
 similar to the occupied MOs in a "reference" cycle ("KeepOrbitals").
 The reference cycle is always the PREVIOUS cycle: it will evolve with
 the SCF procedure.



 ================================
 (Slater-type)  F U N C T I O N S  ***  (Basis and Fit)  ***
 ================================
  

 Atom Type    1  (N)
 ==============

 Valence Basis Sets:   5
 -----------------------
   1 S    6.380000
   2 S    1.460000
   2 S    2.380000
   2 P    1.120000
   2 P    2.580000

 Frozen Core Shells
 ------------------
    S:  1


 BAS: List of all Elementary Cartesian Basis Functions
 =====================================================

 The numbering in the list below (to the right of the function characteristics) is referred
 to in print-outs of MO eigenvectors and Mulliken populations in the BAS representation
 (as contrasted to the SFO representation).

 Notes:
 1. The functions are characterized by a polynomial prefactor (powers of x,y,z and r) and
    an exponential decay factor alpha.
 2. Since the basis sets are specific for an atom TYPE, the individual functions occur on
    all atoms of that type.
 3. The word 'Core' in the left margin signals that it is a Core Function (CF) : not a
    degree of freedom in the valence set, but only used to ensure orthogonalization of
    the other valence basis functions on the frozen Core Orbitals.


 (power of) X  Y  Z  R     Alpha  on Atom
            ==========     =====     ==========

 N                                    1
                                  ---------------------------------------------------------------------------
    Core    0  0  0  0     6.380      1
            0  0  0  1     1.460      2
            0  0  0  1     2.380      3
            1  0  0  0     1.120      4
            0  1  0  0     1.120      5
            0  0  1  0     1.120      6
            1  0  0  0     2.580      7
            0  1  0  0     2.580      8
            0  0  1  0     2.580      9

 Total number of charge fitting functions (nprimf)        82
 Total number of Cartesian basis functions (naos)          9
 Total number of Cartesian core functions  (ncos)          1



 BAS: List of all Elementary Cartesian Basis Functions
 =====================================================

 The numbering in the list below (to the right of the function characteristics) is referred
 to in print-outs of MO eigenvectors and Mulliken populations in the BAS representation
 (as contrasted to the SFO representation).

 Notes:
 1. The functions are characterized by a polynomial prefactor (powers of x,y,z and r) and
    an exponential decay factor alpha.
 2. Since the basis sets are specific for an atom TYPE, the individual functions occur on
    all atoms of that type.
 3. The word 'Core' in the left margin signals that it is a Core Function (CF) : not a
    degree of freedom in the valence set, but only used to ensure orthogonalization of
    the other valence basis functions on the frozen Core Orbitals.


 (power of) X  Y  Z  R     Alpha  on Atom
            ==========     =====     ==========

 N                                    1
                                  ---------------------------------------------------------------------------
    Core    0  0  0  0     6.380      1
            0  0  0  1     1.460      2
            0  0  0  1     2.380      3
            1  0  0  0     1.120      4
            0  1  0  0     1.120      5
            0  0  1  0     1.120      6
            1  0  0  0     2.580      7
            0  1  0  0     2.580      8
            0  0  1  0     2.580      9
1
 ***************************************************************************************************



                                              ***********************
                                              *  T E C H N I C A L  *
                                              ***********************
  



 =============================================================
 P A R A L L E L I Z A T I O N  and  V E C T O R I Z A T I O N
 =============================================================
  
 Nr of parallel processes:                                1
 Maximum vector length in NumInt loops:                 128



 =====================
 S C F   U P D A T E S
 =====================
  
 Max. nr. of cycles:                               300
 Convergence criterion:                              0.0000000100
   secondary criterion:                              0.0000000100

 Mix parameter (when DIIS does not apply):           0.2000000000
 Special mix parameter for the first cycle:          1.0000000000
 Mixed ADIIS+SDIIS will be used                  
    Max number of expansion vectors:                10
    Pure ADIIS when Max([F,P]) is above              0.1000000000
    Pure SDIIS when Max([F,P]) is below              0.0010000000
 Automatic ElectronSmearing (in case of problematic SCF convergence) disabled



 =================
 P R E C I S I O N  ***  (General: NumInt, NeglectFunctionTails, ...)  ***
 =================
  

 NumInt:           Target precision:                12.0000000000
 -------           Initial precision:               10.0000000000
                   Min. precision (optimization):   10.0000000000

 Neglect Functions:          Basis functions:        0.1000000000E-13
 ------------------          Fit functions:          0.1000000000E-13



 ===========================
 L I N E A R   S C A L I N G
 ===========================
  

 Cut-off radii density fit:                        0.1000000000E-97
 Overlap cut-off criterion AO matrix elements:     0.1000000000E-97
 Cut-offs for Coulomb potential and fitted density:0.1000000000E-97
 Cut-off criterion for Coulomb multipole terms:    0.1000000000E-97
 Progressive Convergence parameter:                 0.000000000    
1
 ***************************************************************************************************



                                            ***************************
                                            *  C O M P U T A T I O N  *
                                            ***************************
  

 Number of elements of the density matrix on this node (used, total):        45        45



 ===========================================
 Numerical Integration : Fuzzy Cells (Becke)
 ===========================================
  
 Becke grid quality: VERYGOOD       
  
 Lebedev angular grid order:             min:  13 max:  41
 Nr. of radial points:                   min:  68 max:  68

 Total nr. of points:         68
 Nr. of blocks:                1
 Block length:                68
 Nr. of dummy points:          0


 Test of Precision of the Numerical Integration Grid
 ===================================================

 Integral of the Total Core Density:                   2.00000004779027
 Relative Error:                                       2.390E-08



 ========================
 Density Fitting (zlmFit)
 ========================
  
 ZlmFit Fit Quality: VERYGOOD       
  
 Max L-expansion:                        min:   0 max:   0
 Nr. of radial interpolation points:     min: 150 max: 150



 =====
 S C F  ***  ScaSCF  ***
 =====
  

 CYCLE    1
 SCF Error: norm([F,P])=      0.000000000000, max([F,P])=      0.000000000000
 orbitals (Q,E):
 ---------------
 S :1...2            ( 2.00    -3.8308)  ( 0.00    -1.5342)
 P :1...2            ( 3.00    -3.5256)  ( 0.00    -1.4645)

 CYCLE    2
 SCF Error: norm([F,P])=      1.549673975551, max([F,P])=      1.258101921759
 orbitals (Q,E):
 ---------------
 S :1...2            ( 2.00    -0.1903)  ( 0.00     1.2168)
 P :1...2            ( 3.00     0.1546)  ( 0.00     1.2047)

 CYCLE    3
  SDIIS (wt  0.000):  0.4674  0.5326
 A-DIIS (wt  1.000):  0.3240  0.6760
  DIIS coefficients:  0.3240  0.6760
 SCF Error: norm([F,P])=      1.360249054281, max([F,P])=      1.048050156299
 orbitals (Q,E):
 ---------------
 S :1...2            ( 2.00    -0.8381)  ( 0.00     0.5861)
 P :1...2            ( 3.00    -0.4109)  ( 0.00     0.4817)

 CYCLE    4
  SDIIS (wt  0.000):  0.1928  0.8072
 A-DIIS (wt  1.000):  0.0000  1.0000
  DIIS coefficients:  0.0000  1.0000
 SCF Error: norm([F,P])=      0.325925918927, max([F,P])=      0.228226698732
 orbitals (Q,E):
 ---------------
 S :1...2            ( 2.00    -0.5797)  ( 0.00     0.7788)
 P :1...2            ( 3.00    -0.1643)  ( 0.00     0.6846)

 CYCLE    5
  SDIIS (wt  0.000):  0.4892  0.5108
 A-DIIS (wt  1.000):  0.4642  0.5358
  DIIS coefficients:  0.4642  0.5358
 SCF Error: norm([F,P])=      0.312119029167, max([F,P])=      0.221835145933
 orbitals (Q,E):
 ---------------
 S :1...2            ( 2.00    -0.6950)  ( 0.00     0.6844)
 P :1...2            ( 3.00    -0.2715)  ( 0.00     0.5814)

 CYCLE    6
  SDIIS (wt  0.928):  0.0359  0.9641
 A-DIIS (wt  0.072):  0.0000  1.0000
  DIIS coefficients:  0.0333  0.9667
 SCF Error: norm([F,P])=      0.011627935283, max([F,P])=      0.008114454643
 orbitals (Q,E):
 ---------------
 S :1...2            ( 2.00    -0.6895)  ( 0.00     0.6886)
 P :1...2            ( 3.00    -0.2663)  ( 0.00     0.5858)

 CYCLE    7
  SDIIS (wt  1.000):  0.0715  0.9285
  DIIS coefficients:  0.0715  0.9285
 SCF Error: norm([F,P])=      0.000895557034, max([F,P])=      0.000636506786
 orbitals (Q,E):
 ---------------
 S :1...2            ( 2.00    -0.6898)  ( 0.00     0.6884)
 P :1...2            ( 3.00    -0.2666)  ( 0.00     0.5855)

 CYCLE    8
  SDIIS (wt  1.000): -0.0084  1.0084
  DIIS coefficients: -0.0084  1.0084
 SCF Error: norm([F,P])=      0.000007431471, max([F,P])=      0.000005244833
 orbitals (Q,E):
 ---------------
 S :1...2            ( 2.00    -0.6898)  ( 0.00     0.6884)
 P :1...2            ( 3.00    -0.2666)  ( 0.00     0.5855)

 CYCLE    9
  SDIIS (wt  1.000):  0.0035  0.9965
  DIIS coefficients:  0.0035  0.9965
 SCF Error: norm([F,P])=      0.000000026230, max([F,P])=      0.000000018481
 orbitals (Q,E):
 ---------------
 S :1...2            ( 2.00    -0.6898)  ( 0.00     0.6884)
 P :1...2            ( 3.00    -0.2666)  ( 0.00     0.5855)

 CYCLE   10
  SDIIS (wt  1.000):  0.0008  0.9992
  DIIS coefficients:  0.0008  0.9992
 SCF Error: norm([F,P])=      0.000000000021, max([F,P])=      0.000000000015
 orbitals (Q,E):
 ---------------
 S :1...2            ( 2.00    -0.6898)  ( 0.00     0.6884)
 P :1...2            ( 3.00    -0.2666)  ( 0.00     0.5855)

 SCF CONVERGED

 CYCLE   11
1
 ***************************************************************************************************



                                                *******************
                                                *  R E S U L T S  *
                                                *******************
  
 *** Using FIT density in Focky
  SDIIS (wt  1.000):  0.0005  0.9995
  DIIS coefficients:  0.0005  0.9995
 SCF Error: norm([F,P])=      0.000000000000, max([F,P])=      0.000000000000

 Scaled ZORA Orbital Energies, per Irrep and Spin:
 =================================================
                        Occup              E (au)              E (eV)       Diff (eV) with prev. cycle
                        -----      --------------------        ------       --------------------------
 S
               1        2.000     -0.68979333234436E+00       -18.770               1.57E-13
               2        0.000      0.68835668824347E+00        18.731
 P
               1        3.000     -0.26655778219350E+00        -7.253               1.57E-13
               2        0.000      0.58549619457877E+00        15.932


 Partially Occupied:
               1 P                -0.26655778219350E+00
  
 HOMO :        1 S                -0.68979333234436E+00
 LUMO :        2 P                 0.58549619457877E+00
  


 Orbital Energies, all Irreps
 ========================================

 Irrep        no.  (spin)   Occup              E (au)                E (eV)
 ---------------------------------------------------------------------------
 S             1             2.00       -0.68979333234436E+00       -18.7702
 P             1             3.00       -0.26655778219350E+00        -7.2534
 P             2             0.00        0.58549619457877E+00        15.9322
 S             2             0.00        0.68835668824347E+00        18.7311


 Scaled ZORA Orbital Energies of the Core Orbitals:
 ==================================================

 (Note that the atoms are grouped by atomtype, see the labels, and may hence NOT be in input order)

 AtomType  Orbital  Atom                   E (au)                        E (eV)
 --------  -------  ----           --------------------        ----------------
 N           1S        1          -0.14166659762581E+02                -385.494



 =======================================
 M U L L I K E N   P O P U L A T I O N S
 =======================================
  
 The survey below gives for each atom:
 a) the total charge (Z minus electrons)
 b) the net spin polarization (nr of electrons spin-A minus spin-B)
 c) for each spin the atomic electron valence density (integrated) per L-value.

 Atom              Charge    Spin density          S         P         D         F
 ----              ------    ------------       ------    ------    ------    ------
 1 N              -0.0000                       2.0000    3.0000    0.0000    0.0000

 Populations of individual BAS functions
 ----------------------------------------
 1 N            0.0005  0.8702  1.1293  0.4947  0.4947  0.4947  0.5053  0.5053  0.5053

 Gross Charges per Atom (Z minus electrons)
 ==========================================
            -0.0000
 Net Total: -0.00000000



 =======================================================================
 Electrostatic potential at the Nuclei due to electrons and other nuclei
 =======================================================================
  
         Atom                  Potential
         ----                  ---------
     1)   N                  18.25311827
 
 
 ========================
 No memory problems found
 ========================
 
 Maximum number of active allocate calls:         319
 
 *******************************************************************************

                             A D F   E X I T
 NORMAL TERMINATION



 =================
 Timing Statistics
 =================
  
 Total Used :                     CPU=        0.68      System=        0.08     Elapsed=        1.09

 Calls  Section                     ( Mean, Percentage )
 ---------------------------------------------------------------------------------------------------
     3  ><      ................      0.00    1.25             0.00    2.18             0.00    1.30
     1  INIT    ................      0.10   14.22             0.01    8.45             0.12   10.79
     1  GEOMET  ................      0.03    5.09             0.01   16.71             0.09    8.58
     1  INPUTA  ................      0.01    0.99             0.00    0.34             0.01    1.27
     1  MAINSY  ................      0.03    4.41             0.00    5.56             0.09    7.84
     1  SYMFIT  ................      0.00    0.06             0.00    2.63             0.00    0.29
     1  CORORT  ................      0.00    0.30             0.00    0.00             0.00    0.44
     1  SYMORB  ................      0.00    0.26             0.00    0.00             0.00    0.27
     1  CLSMAT  ................      0.01    1.22             0.00    4.32             0.02    1.72
     1  ORTHON  ................      0.01    0.84             0.00    1.59             0.01    0.90
     1  GENPT   ................      0.02    2.38             0.00    3.67             0.03    2.86
     1  PTBAS   ................      0.01    1.02             0.00    3.56             0.02    1.56
    11  FOCKY   ................      0.03   51.31             0.00   26.71             0.04   41.12
    11  FOCKTR  ................      0.00    2.09             0.00    2.72             0.00    2.82
    11  SDIIS   ................      0.00    7.07             0.00    9.35             0.01   10.06
     1  COREPS  ................      0.03    3.70             0.01    6.65             0.04    3.56
     1  POPAN   ................      0.01    0.99             0.00    0.27             0.01    1.26
     1  DEBYE   ................      0.00    0.31             0.00    0.90             0.01    0.51
     1  EXIT PROCEDURE .........      0.02    2.49             0.00    4.39             0.03    2.86


 Currently Open Files (EXIT00)
 ====================

 Unit    Access Format  Status   Type       Ident (file)
 -------------------------------------------------------
   3      SEQ    FORM   TRANSP  NORMAL      LOGFILE
                                          ( logfile )

 ***************************************************************************************************
 (LOGFILE)
 <Feb04-2021> <20:23:52>  DIRAC 2019  RunTime: Feb04-2021 20:23:52  Nodes: 1  Procs: 1
 <Feb04-2021> <20:23:52>  NORMAL TERMINATION
 <Feb04-2021> <20:23:52>  END
 <Feb04-2021> <20:23:52>  ADF 2019  RunTime: Feb04-2021 20:23:52  Nodes: 1  Procs: 1
 <Feb04-2021> <20:23:52>  Hydrogen (DZ)
 <Feb04-2021> <20:23:52>  RunType   : CREATE
 <Feb04-2021> <20:23:52>  Net Charge: 0 (Nuclei minus Electrons)
 <Feb04-2021> <20:23:52>  Symmetry  : ATOM
  Coordinates
    Atom         X           Y           Z   (Angstrom)
    1.H         0.000000    0.000000    0.000000
 <Feb04-2021> <20:23:52>  >>>> CORORT
 <Feb04-2021> <20:23:52>  >>>> CLSMAT
 <Feb04-2021> <20:23:52>  >>>> ORTHON
 <Feb04-2021> <20:23:53>  >>>> GENPT
 <Feb04-2021> <20:23:53>  Block Length=  64
 <Feb04-2021> <20:23:53>  >>>> PTBAS
 <Feb04-2021> <20:23:53>  >>>> CYCLE
 <Feb04-2021> <20:23:53>              |Error|         MaxErr       Wt(A-DIIS)
 <Feb04-2021> <20:23:53>      1      0.00000000      0.00000000
 <Feb04-2021> <20:23:53>      2      0.03300193      0.03300193
 <Feb04-2021> <20:23:53>      3      0.00595445      0.00595445    100.0
 <Feb04-2021> <20:23:53>      4      0.00102040      0.00102040      0.0
 <Feb04-2021> <20:23:53>      5      0.00000144      0.00000144      0.0
 <Feb04-2021> <20:23:53>      6      0.00000000      0.00000000      0.0
 <Feb04-2021> <20:23:53>  SCF converged
 <Feb04-2021> <20:23:53>      7      0.00000000      0.00000000      0.0
 <Feb04-2021> <20:23:53>  >>>> POPAN
 <Feb04-2021> <20:23:53>  >>>> DEBYE
 <Feb04-2021> <20:23:53>  NORMAL TERMINATION
 <Feb04-2021> <20:23:53>  END
 <Feb04-2021> <20:23:53>  DIRAC 2019  RunTime: Feb04-2021 20:23:53  Nodes: 1  Procs: 1
 <Feb04-2021> <20:23:53>  NORMAL TERMINATION
 <Feb04-2021> <20:23:53>  END
 <Feb04-2021> <20:23:54>  ADF 2019  RunTime: Feb04-2021 20:23:54  Nodes: 1  Procs: 1
 <Feb04-2021> <20:23:54>  Nitrogen (DZ, 1s frozen)
 <Feb04-2021> <20:23:54>  RunType   : CREATE
 <Feb04-2021> <20:23:54>  Net Charge: 0 (Nuclei minus Electrons)
 <Feb04-2021> <20:23:54>  Symmetry  : ATOM
  Coordinates
    Atom         X           Y           Z   (Angstrom)
    1.N         0.000000    0.000000    0.000000
 <Feb04-2021> <20:23:54>  >>>> CORORT
 <Feb04-2021> <20:23:54>  >>>> CLSMAT
 <Feb04-2021> <20:23:54>  >>>> ORTHON
 <Feb04-2021> <20:23:54>  >>>> GENPT
 <Feb04-2021> <20:23:54>  Block Length=  68
 <Feb04-2021> <20:23:54>  >>>> PTBAS
 <Feb04-2021> <20:23:54>  >>>> CYCLE
 <Feb04-2021> <20:23:54>              |Error|         MaxErr       Wt(A-DIIS)
 <Feb04-2021> <20:23:54>      1      0.00000000      0.00000000
 <Feb04-2021> <20:23:54>      2      1.54967398      1.25810192
 <Feb04-2021> <20:23:54>      3      1.36024905      1.04805016    100.0
 <Feb04-2021> <20:23:54>      4      0.32592592      0.22822670    100.0
 <Feb04-2021> <20:23:54>      5      0.31211903      0.22183515    100.0
 <Feb04-2021> <20:23:54>      6      0.01162794      0.00811445      7.2
 <Feb04-2021> <20:23:54>      7      0.00089556      0.00063651      0.0
 <Feb04-2021> <20:23:54>      8      0.00000743      0.00000524      0.0
 <Feb04-2021> <20:23:54>      9      0.00000003      0.00000002      0.0
 <Feb04-2021> <20:23:54>     10      0.00000000      0.00000000      0.0
 <Feb04-2021> <20:23:54>  SCF converged
 <Feb04-2021> <20:23:54>     11      0.00000000      0.00000000      0.0
 <Feb04-2021> <20:23:55>  >>>> POPAN
 <Feb04-2021> <20:23:55>  >>>> DEBYE
 <Feb04-2021> <20:23:55>  NORMAL TERMINATION
 <Feb04-2021> <20:23:55>  END

 *******************************************************************************
 *                                                                             *
 *  -------------------------------------                                      *
 *   Amsterdam Density Functional  (ADF)         2019                          *
 *  -------------------------------------                                      *
 *                                               r74351 2019-04-25             *
 *                                                                             *
 *                                                                             *
 *                            =====================                            *
 *                            |                   |                            *
 *                            |     D I R A C     |                            *
 *                            |                   |                            *
 *                            =====================                            *
 *                                                                             *
 *                                                                             *
 *   Online information and documentation:  https://www.scm.com/support/       *
 *   E-mail:  support@scm.com   info@scm.com                                   *
 *                                                                             *
 *   Scientific publications using ADF results must be properly referenced     *
 *   See the User Manuals (or the web site) for recommended citations          *
 *   The terms and conditions of the End User License Agreement apply to       *
 *   the use of ADF, https://www.scm.com/license-terms/                        *
 *                                                                             *
 **********************  x86_64_linux_intel / intelmpi  ************************
 
 Licensed to: Dr. Emilie Guidez / UC Denver / Denver / CO / USA
 SCM User ID: u20218
  
 DIRAC 2019  RunTime: Feb04-2021 20:23:55  Nodes: 1  Procs: 1

 Temporary files are created in /home/chemistry/limjae/scr/kid_0.743252910

1
 GOLD ATOM 4d CORE RELATIVISTIC, Point Nuc, A and c from libt
 N J RN H ZN XION ANUC CLIGHT
 5000   22100.00000000197.36710137 79.00000000  0.00000000  196.966551  0.1370360E+03
  PH   PHI     EPS        DEL        DELRVR
  0.30  0.30     2500.00  0.00001000  0.00001000
 IDIRC  NC1  NDEBU NPRIN  IPUN IRCOR IWCOR
   1   300     0     0     0     0    14
   XALPHA      XLATTER      RNUC
  0.70000000  0.00000000  0.00000000 Point Charge
   XN   XL   XJ      XE          XZ      XDELL
  1.0  0.0  0.5   -2600.000       2.000     0.00000
  2.0  0.0  0.5    -425.000       2.000     0.00000
  2.0  1.0  0.5    -425.000       2.000     0.00000
  2.0  1.0  1.5    -425.000       4.000     0.00000
  3.0  0.0  0.5    -100.000       2.000     0.00000
  3.0  1.0  0.5    -100.000       2.000     0.00000
  3.0  1.0  1.5    -100.000       4.000     0.00000
  3.0  2.0  1.5     -80.000       4.000     0.00000
  3.0  2.0  2.5     -80.000       6.000     0.00000
  4.0  0.0  0.5     -22.000       2.000     0.00000
  4.0  1.0  0.5     -20.000       2.000     0.00000
  4.0  1.0  1.5     -20.000       4.000     0.00000
  4.0  2.0  1.5     -11.000       4.000     0.00000
  4.0  2.0  2.5     -11.000       6.000     0.00000
  4.0  3.0  2.5      -1.000       6.000     0.00000
  4.0  3.0  3.5      -1.000       8.000     0.00000
  5.0  0.0  0.5      -3.000       2.000     0.00000
  5.0  1.0  0.5      -2.200       2.000     0.00000
  5.0  1.0  1.5      -2.200       4.000     0.00000
  5.0  2.0  1.5      -0.500       4.000     0.00000
  5.0  2.0  2.5      -0.500       6.000     0.00000
  6.0  0.0  0.5      -0.200       1.000     0.00000
 ICORP=  0  NPCL=  0  DEMP=0.00  PEPS=0.000000
 R(1)=  0.1000000E-08 D=  0.1005080E+01 RNUC=  0.0000000E+00
 converged at cycle   60  DENSITY AVERAGING    0.0786
  MAXIMUM ERROR IN R.V(R) IS   0.38523360E-05
 Q,EY,EV,EZ,ESUM,ETOT,RHO  0.790000E+02 -0.485545E+03 -0.336404E+05 -0.479937E+05 -0.117486E+05 -0.190466E+05  0.196298E-08


 DIRAC CALCULATION
1                    GOLD ATOM 4d CORE RELATIVISTIC, Point Nuc, A and c from libtc


 EXCHANGE COEFFICIENT=  0.7000000           TAIL CORRECTION=  0.           NUCLEAR RADIUS=  0.000E+00
0                       ORBITAL    N    L    J     ELECTRONS     EIGENVALUE                DELTA OF EIGENV.

                          1S1/2  1.0  0.0  0.5     2.000       -0.2963119E+04                 0.3731460E-04
                          2S1/2  2.0  0.0  0.5     2.000       -0.5226069E+03                 0.3102938E-04
                          2P1/2  2.0  1.0  0.5     2.000       -0.5013071E+03                 0.3249986E-04
                          2P3/2  2.0  1.0  1.5     4.000       -0.4338328E+03                 0.3150316E-04
                          3S1/2  3.0  0.0  0.5     2.000       -0.1233461E+03                 0.2017137E-04
                          3P1/2  3.0  1.0  0.5     2.000       -0.1137481E+03                 0.2099254E-04
                          3P3/2  3.0  1.0  1.5     4.000       -0.9885554E+02                 0.1984570E-04
                          3D3/2  3.0  2.0  1.5     4.000       -0.8287610E+02                 0.2174809E-04
                          3D5/2  3.0  2.0  2.5     6.000       -0.7967162E+02                 0.2135379E-04
                          4S1/2  4.0  0.0  0.5     2.000       -0.2673972E+02                 0.1054160E-04
                          4P1/2  4.0  1.0  0.5     2.000       -0.2264484E+02                 0.1056903E-04
                          4P3/2  4.0  1.0  1.5     4.000       -0.1906321E+02                 0.9669504E-05
                          4D3/2  4.0  2.0  1.5     4.000       -0.1235180E+02                 0.9615342E-05
                          4D5/2  4.0  2.0  2.5     6.000       -0.1168427E+02                 0.9341815E-05
                          4F5/2  4.0  3.0  2.5     6.000       -0.3062221E+01                 0.8653601E-05
                          4F7/2  4.0  3.0  3.5     8.000       -0.2921300E+01                 0.8510675E-05
                          5S1/2  5.0  0.0  0.5     2.000       -0.3963776E+01                 0.3355907E-05
                          5P1/2  5.0  1.0  0.5     2.000       -0.2629660E+01                 0.2984355E-05
                          5P3/2  5.0  1.0  1.5     4.000       -0.2015087E+01                 0.2530381E-05
                          5D3/2  5.0  2.0  1.5     4.000       -0.2662248E+00                 0.1434098E-05
                          5D5/2  5.0  2.0  2.5     6.000       -0.2094938E+00                 0.1305568E-05
                          6S1/2  6.0  0.0  0.5     1.000       -0.1940684E+00                 0.3484321E-06


                                        NUCLEAR CHARGE=   79.000000
                            INTEGRAL OF CHARGE DENSITY=   79.000000
                           SUM OF THE ORBITAL ENERGIES= -11748.5839
                                          TOTAL ENERGY= -19046.6065
                                        KINETIC ENERGY=  21891.8398
                             NUCLEAR ATTRACTION ENERGY= -47993.6963
                             ELECTRON REPULSION ENERGY=   7419.4090
                                       EXCHANGE ENERGY=   -364.1591

 *******************************************************************************

                             D I R A C   E X I T
 NORMAL TERMINATION



 =================
 Timing Statistics
 =================
  
 Total Used :                     CPU=        0.61      System=        0.01     Elapsed=        0.79

 Calls  Section                     ( Mean, Percentage )
 ---------------------------------------------------------------------------------------------------
     2  ><      ................      0.00    0.00             0.00    0.04             0.00    0.00
     1  EXIT PROCEDURE .........      0.61  100.00             0.01   99.96             0.79  100.00


 Currently Open Files (EXIT00)
 ====================

 Unit    Access Format  Status   Type       Ident (file)
 -------------------------------------------------------
   3      SEQ    FORM   TRANSP  NORMAL      LOGFILE
                                          ( logfile )
 
Create Au   file=DZ-Au.4d
XC
 GGA PBE
End
relativistic ZORA
Corepotentials t12.rel
End

 *******************************************************************************
 *                                                                             *
 *  -------------------------------------                                      *
 *   Amsterdam Density Functional  (ADF)         2019                          *
 *  -------------------------------------                                      *
 *                                               r74351 2019-04-25             *
 *                                                                             *
 *                                                                             *
 *                              =================                              *
 *                              |               |                              *
 *                              |     A D F     |                              *
 *                              |               |                              *
 *                              =================                              *
 *                                                                             *
 *                                                                             *
 *   Online information and documentation:  https://www.scm.com/support/       *
 *   E-mail:  support@scm.com   info@scm.com                                   *
 *                                                                             *
 *   Scientific publications using ADF results must be properly referenced     *
 *   See the User Manuals (or the web site) for recommended citations          *
 *   The terms and conditions of the End User License Agreement apply to       *
 *   the use of ADF, https://www.scm.com/license-terms/                        *
 *                                                                             *
 **********************  x86_64_linux_intel / intelmpi  ************************
 
 Licensed to: Dr. Emilie Guidez / UC Denver / Denver / CO / USA
 SCM User ID: u20218
  
 ADF 2019  RunTime: Feb04-2021 20:23:56  Nodes: 1  Procs: 1

 Temporary files are created in /home/chemistry/limjae/scr/kid_0.1133614886

 Gold (DZ, 4d frozen)



 ===========================
 A T T A C H E D   F I L E S
 ===========================
  
 CREATE - Data File:    DZ-Au.4d
                        Gold (DZ, 4d frozen)
 Core Potentials:
         file : t12.rel



 ===============================
 M O D E L   P A R A M E T E R S
 ===============================
  
 DENSITY FUNCTIONAL POTENTIAL (scf)
    LDA:                               PW92                                    == Not Default ==
    Gradient Corrections:              PBEc PBEx                               == Not Default ==

 SPIN  (restricted / unrestr.)
    Molecule:                          Restricted                               

 OTHER ASPECTS
    Relativistic Corrections:          scalar (ZORA,MAPA)                      == Not Default ==

    Nuclear Charge Density Model:      Point Charge Nuclei                      
    Core Treatment:                    Frozen Orbital(s)                        

    Hyperfine or Zeeman Interaction:   ---                                      



 =====================================
 S Y M M E T R Y ,   E L E C T R O N S
 =====================================
  
 Symmetry: ATOM

 Irreducible Representations, including subspecies
 -------------------------------------------------
 S
 P:x  P:y  P:z
 D:z2  D:x2-y2  D:xy  D:xz  D:yz
 F:z3  F:z  F:xyz  F:z2x  F:z2y  F:x  F:y


 Configuration of Valence Electrons
 ==================================

          Occupation Numbers
          -------------------------------------------------
 S        2 1
 P        6
 D        10
 F        14
          -------------------------------------------------

 Total:   33

 Net Charge: 0 (Nuclei minus Electrons)

 Preset values for MO occupations will be applied through SCF cycle no. 1000000
 Thereafter, the program will assign electrons to MOs that are spatially
 similar to the occupied MOs in a "reference" cycle ("KeepOrbitals").
 The reference cycle is always the PREVIOUS cycle: it will evolve with
 the SCF procedure.



 ================================
 (Slater-type)  F U N C T I O N S  ***  (Basis and Fit)  ***
 ================================
  

 Atom Type    1  (Au)
 ==============

 Valence Basis Sets:  21
 -----------------------
   1 S   57.000000
   2 S   36.650000
   3 S   21.050000
   4 S   12.400000
   2 P   39.650000
   3 P   17.950000
   4 P   12.550000
   3 D   22.100000
   4 D   11.200000
   5 S    7.000000
   5 S    4.600000
   6 S    2.850000
   6 S    1.510000
   5 P    6.000000
   5 P    3.700000
   5 D    4.350000
   5 D    2.000000
   4 F   16.150000
   4 F    8.900000
   4 F    4.900000
   6 P    1.950000

 Frozen Core Shells
 ------------------
    S:  4
    P:  3
    D:  2


 BAS: List of all Elementary Cartesian Basis Functions
 =====================================================

 The numbering in the list below (to the right of the function characteristics) is referred
 to in print-outs of MO eigenvectors and Mulliken populations in the BAS representation
 (as contrasted to the SFO representation).

 Notes:
 1. The functions are characterized by a polynomial prefactor (powers of x,y,z and r) and
    an exponential decay factor alpha.
 2. Since the basis sets are specific for an atom TYPE, the individual functions occur on
    all atoms of that type.
 3. The word 'Core' in the left margin signals that it is a Core Function (CF) : not a
    degree of freedom in the valence set, but only used to ensure orthogonalization of
    the other valence basis functions on the frozen Core Orbitals.


 (power of) X  Y  Z  R     Alpha  on Atom
            ==========     =====     ==========

 Au                                   1
                                  ---------------------------------------------------------------------------
    Core    0  0  0  0    57.000      1
    Core    0  0  0  1    36.650      2
    Core    0  0  0  2    21.050      3
    Core    0  0  0  3    12.400      4
    Core    1  0  0  0    39.650      5
    Core    0  1  0  0    39.650      6
    Core    0  0  1  0    39.650      7
    Core    1  0  0  1    17.950      8
    Core    0  1  0  1    17.950      9
    Core    0  0  1  1    17.950     10
    Core    1  0  0  2    12.550     11
    Core    0  1  0  2    12.550     12
    Core    0  0  1  2    12.550     13
    Core    2  0  0  0    22.100     14
    Core    1  1  0  0    22.100     15
    Core    1  0  1  0    22.100     16
    Core    0  2  0  0    22.100     17
    Core    0  1  1  0    22.100     18
    Core    0  0  2  0    22.100     19
    Core    2  0  0  1    11.200     20
    Core    1  1  0  1    11.200     21
    Core    1  0  1  1    11.200     22
    Core    0  2  0  1    11.200     23
    Core    0  1  1  1    11.200     24
    Core    0  0  2  1    11.200     25
            0  0  0  4     7.000     26
            0  0  0  4     4.600     27
            0  0  0  5     2.850     28
            0  0  0  5     1.510     29
            1  0  0  3     6.000     30
            0  1  0  3     6.000     31
            0  0  1  3     6.000     32
            1  0  0  3     3.700     33
            0  1  0  3     3.700     34
            0  0  1  3     3.700     35
            2  0  0  2     4.350     36
            1  1  0  2     4.350     37
            1  0  1  2     4.350     38
            0  2  0  2     4.350     39
            0  1  1  2     4.350     40
            0  0  2  2     4.350     41
            2  0  0  2     2.000     42
            1  1  0  2     2.000     43
            1  0  1  2     2.000     44
            0  2  0  2     2.000     45
            0  1  1  2     2.000     46
            0  0  2  2     2.000     47
            3  0  0  0    16.150     48
            2  1  0  0    16.150     49
            2  0  1  0    16.150     50
            1  2  0  0    16.150     51
            1  1  1  0    16.150     52
            1  0  2  0    16.150     53
            0  3  0  0    16.150     54
            0  2  1  0    16.150     55
            0  1  2  0    16.150     56
            0  0  3  0    16.150     57
            3  0  0  0     8.900     58
            2  1  0  0     8.900     59
            2  0  1  0     8.900     60
            1  2  0  0     8.900     61
            1  1  1  0     8.900     62
            1  0  2  0     8.900     63
            0  3  0  0     8.900     64
            0  2  1  0     8.900     65
            0  1  2  0     8.900     66
            0  0  3  0     8.900     67
            3  0  0  0     4.900     68
            2  1  0  0     4.900     69
            2  0  1  0     4.900     70
            1  2  0  0     4.900     71
            1  1  1  0     4.900     72
            1  0  2  0     4.900     73
            0  3  0  0     4.900     74
            0  2  1  0     4.900     75
            0  1  2  0     4.900     76
            0  0  3  0     4.900     77
            1  0  0  4     1.950     78
            0  1  0  4     1.950     79
            0  0  1  4     1.950     80

 Total number of charge fitting functions (nprimf)       327
 Total number of Cartesian basis functions (naos)         80
 Total number of Cartesian core functions  (ncos)         25



 BAS: List of all Elementary Cartesian Basis Functions
 =====================================================

 The numbering in the list below (to the right of the function characteristics) is referred
 to in print-outs of MO eigenvectors and Mulliken populations in the BAS representation
 (as contrasted to the SFO representation).

 Notes:
 1. The functions are characterized by a polynomial prefactor (powers of x,y,z and r) and
    an exponential decay factor alpha.
 2. Since the basis sets are specific for an atom TYPE, the individual functions occur on
    all atoms of that type.
 3. The word 'Core' in the left margin signals that it is a Core Function (CF) : not a
    degree of freedom in the valence set, but only used to ensure orthogonalization of
    the other valence basis functions on the frozen Core Orbitals.


 (power of) X  Y  Z  R     Alpha  on Atom
            ==========     =====     ==========

 Au                                   1
                                  ---------------------------------------------------------------------------
    Core    0  0  0  0    57.000      1
    Core    0  0  0  1    36.650      2
    Core    0  0  0  2    21.050      3
    Core    0  0  0  3    12.400      4
    Core    1  0  0  0    39.650      5
    Core    0  1  0  0    39.650      6
    Core    0  0  1  0    39.650      7
    Core    1  0  0  1    17.950      8
    Core    0  1  0  1    17.950      9
    Core    0  0  1  1    17.950     10
    Core    1  0  0  2    12.550     11
    Core    0  1  0  2    12.550     12
    Core    0  0  1  2    12.550     13
    Core    2  0  0  0    22.100     14
    Core    1  1  0  0    22.100     15
    Core    1  0  1  0    22.100     16
    Core    0  2  0  0    22.100     17
    Core    0  1  1  0    22.100     18
    Core    0  0  2  0    22.100     19
    Core    2  0  0  1    11.200     20
    Core    1  1  0  1    11.200     21
    Core    1  0  1  1    11.200     22
    Core    0  2  0  1    11.200     23
    Core    0  1  1  1    11.200     24
    Core    0  0  2  1    11.200     25
            0  0  0  4     7.000     26
            0  0  0  4     4.600     27
            0  0  0  5     2.850     28
            0  0  0  5     1.510     29
            1  0  0  3     6.000     30
            0  1  0  3     6.000     31
            0  0  1  3     6.000     32
            1  0  0  3     3.700     33
            0  1  0  3     3.700     34
            0  0  1  3     3.700     35
            2  0  0  2     4.350     36
            1  1  0  2     4.350     37
            1  0  1  2     4.350     38
            0  2  0  2     4.350     39
            0  1  1  2     4.350     40
            0  0  2  2     4.350     41
            2  0  0  2     2.000     42
            1  1  0  2     2.000     43
            1  0  1  2     2.000     44
            0  2  0  2     2.000     45
            0  1  1  2     2.000     46
            0  0  2  2     2.000     47
            3  0  0  0    16.150     48
            2  1  0  0    16.150     49
            2  0  1  0    16.150     50
            1  2  0  0    16.150     51
            1  1  1  0    16.150     52
            1  0  2  0    16.150     53
            0  3  0  0    16.150     54
            0  2  1  0    16.150     55
            0  1  2  0    16.150     56
            0  0  3  0    16.150     57
            3  0  0  0     8.900     58
            2  1  0  0     8.900     59
            2  0  1  0     8.900     60
            1  2  0  0     8.900     61
            1  1  1  0     8.900     62
            1  0  2  0     8.900     63
            0  3  0  0     8.900     64
            0  2  1  0     8.900     65
            0  1  2  0     8.900     66
            0  0  3  0     8.900     67
            3  0  0  0     4.900     68
            2  1  0  0     4.900     69
            2  0  1  0     4.900     70
            1  2  0  0     4.900     71
            1  1  1  0     4.900     72
            1  0  2  0     4.900     73
            0  3  0  0     4.900     74
            0  2  1  0     4.900     75
            0  1  2  0     4.900     76
            0  0  3  0     4.900     77
            1  0  0  4     1.950     78
            0  1  0  4     1.950     79
            0  0  1  4     1.950     80
1
 ***************************************************************************************************



                                              ***********************
                                              *  T E C H N I C A L  *
                                              ***********************
  



 =============================================================
 P A R A L L E L I Z A T I O N  and  V E C T O R I Z A T I O N
 =============================================================
  
 Nr of parallel processes:                                1
 Maximum vector length in NumInt loops:                 128



 =====================
 S C F   U P D A T E S
 =====================
  
 Max. nr. of cycles:                               300
 Convergence criterion:                              0.0000000100
   secondary criterion:                              0.0000000100

 Mix parameter (when DIIS does not apply):           0.2000000000
 Special mix parameter for the first cycle:          1.0000000000
 Mixed ADIIS+SDIIS will be used                  
    Max number of expansion vectors:                10
    Pure ADIIS when Max([F,P]) is above              0.1000000000
    Pure SDIIS when Max([F,P]) is below              0.0010000000
 Automatic ElectronSmearing (in case of problematic SCF convergence) disabled



 =================
 P R E C I S I O N  ***  (General: NumInt, NeglectFunctionTails, ...)  ***
 =================
  

 NumInt:           Target precision:                12.0000000000
 -------           Initial precision:               10.0000000000
                   Min. precision (optimization):   10.0000000000

 Neglect Functions:          Basis functions:        0.1000000000E-13
 ------------------          Fit functions:          0.1000000000E-13



 ===========================
 L I N E A R   S C A L I N G
 ===========================
  

 Cut-off radii density fit:                        0.1000000000E-97
 Overlap cut-off criterion AO matrix elements:     0.1000000000E-97
 Cut-offs for Coulomb potential and fitted density:0.1000000000E-97
 Cut-off criterion for Coulomb multipole terms:    0.1000000000E-97
 Progressive Convergence parameter:                 0.000000000    
1
 ***************************************************************************************************



                                            ***************************
                                            *  C O M P U T A T I O N  *
                                            ***************************
  

 Number of elements of the density matrix on this node (used, total):      3240      3240



 ===========================================
 Numerical Integration : Fuzzy Cells (Becke)
 ===========================================
  
 Becke grid quality: VERYGOOD       
  
 Lebedev angular grid order:             min:  13 max:  41
 Nr. of radial points:                   min: 123 max: 123

 Total nr. of points:        123
 Nr. of blocks:                1
 Block length:               123
 Nr. of dummy points:          0


 Test of Precision of the Numerical Integration Grid
 ===================================================

 Integral of the Total Core Density:                  45.99999991226612
 Relative Error:                                      -1.907E-09



 ========================
 Density Fitting (zlmFit)
 ========================
  
 ZlmFit Fit Quality: VERYGOOD       
  
 Max L-expansion:                        min:   0 max:   0
 Nr. of radial interpolation points:     min: 270 max: 270



 =====
 S C F  ***  ScaSCF  ***
 =====
  

 CYCLE    1
 SCF Error: norm([F,P])=      0.000000000000, max([F,P])=      0.000000000000
 orbitals (Q,E):
 ---------------
 S :1...4            ( 2.00   -36.7762)  ( 1.00   -21.6820)  ( 0.00   -12.9085)  ( 0.00    -7.1191)
 P :1...3            ( 6.00   -33.0866)  ( 0.00   -18.4007)  ( 0.00    -9.4584)
 D :1...2            (10.00   -25.1484)  ( 0.00   -11.3803)
[...]
    1.O         0.000000    0.000000    0.000000
 <Feb04-2021> <20:23:58>  >>>> CORORT
 <Feb04-2021> <20:23:58>  >>>> CLSMAT
 <Feb04-2021> <20:23:58>  >>>> ORTHON
 <Feb04-2021> <20:23:58>  >>>> GENPT
 <Feb04-2021> <20:23:58>  Block Length=  68
 <Feb04-2021> <20:23:58>  >>>> PTBAS
 <Feb04-2021> <20:23:58>  >>>> CYCLE
 <Feb04-2021> <20:23:58>              |Error|         MaxErr       Wt(A-DIIS)
 <Feb04-2021> <20:23:58>      1      0.00000000      0.00000000
 <Feb04-2021> <20:23:58>      2      2.51022395      1.83694100
 <Feb04-2021> <20:23:58>      3      2.38195714      1.61935802    100.0
 <Feb04-2021> <20:23:59>      4      0.46758430      0.27634710    100.0
 <Feb04-2021> <20:23:59>      5      0.50410652      0.30498859    100.0
 <Feb04-2021> <20:23:59>      6      0.01247625      0.00764533      6.7
 <Feb04-2021> <20:23:59>      7      0.00085022      0.00051605      0.0
 <Feb04-2021> <20:23:59>      8      0.00000244      0.00000146      0.0
 <Feb04-2021> <20:23:59>      9      0.00000001      0.00000000      0.0
 <Feb04-2021> <20:23:59>  SCF converged
 <Feb04-2021> <20:23:59>     10      0.00000000      0.00000000      0.0
 <Feb04-2021> <20:23:59>  >>>> POPAN
 <Feb04-2021> <20:23:59>  >>>> DEBYE
 <Feb04-2021> <20:23:59>  NORMAL TERMINATION
 <Feb04-2021> <20:23:59>  END
 <Feb04-2021> <20:23:59>  DIRAC 2019  RunTime: Feb04-2021 20:23:59  Nodes: 1  Procs: 1
 <Feb04-2021> <20:23:59>  NORMAL TERMINATION
 <Feb04-2021> <20:23:59>  END
 <Feb04-2021> <20:23:59>  ADF 2019  RunTime: Feb04-2021 20:23:59  Nodes: 1  Procs: 1
 <Feb04-2021> <20:23:59>  Carbon (DZ, 1s frozen)
 <Feb04-2021> <20:23:59>  RunType   : CREATE
 <Feb04-2021> <20:24:00>  Net Charge: 0 (Nuclei minus Electrons)
 <Feb04-2021> <20:24:00>  Symmetry  : ATOM
  Coordinates
    Atom         X           Y           Z   (Angstrom)
    1.C         0.000000    0.000000    0.000000
 <Feb04-2021> <20:24:00>  >>>> CORORT
 <Feb04-2021> <20:24:00>  >>>> CLSMAT
 <Feb04-2021> <20:24:00>  >>>> ORTHON
 <Feb04-2021> <20:24:00>  >>>> GENPT
 <Feb04-2021> <20:24:00>  Block Length=  68
 <Feb04-2021> <20:24:00>  >>>> PTBAS
 <Feb04-2021> <20:24:00>  >>>> CYCLE
 <Feb04-2021> <20:24:00>              |Error|         MaxErr       Wt(A-DIIS)
 <Feb04-2021> <20:24:00>      1      0.00000000      0.00000000
 <Feb04-2021> <20:24:00>      2      0.96385221      0.85255436
 <Feb04-2021> <20:24:00>      3      0.69816270      0.60759186    100.0
 <Feb04-2021> <20:24:00>      4      0.25244702      0.20719292    100.0
 <Feb04-2021> <20:24:00>      5      0.19639955      0.16352478    100.0
 <Feb04-2021> <20:24:00>      6      0.03180040      0.02617408     25.4
 <Feb04-2021> <20:24:00>      7      0.00638036      0.00527666      4.3
 <Feb04-2021> <20:24:00>      8      0.00018258      0.00015050      0.0
 <Feb04-2021> <20:24:00>      9      0.00000052      0.00000043      0.0
 <Feb04-2021> <20:24:00>     10      0.00000000      0.00000000      0.0
 <Feb04-2021> <20:24:00>  SCF converged
 <Feb04-2021> <20:24:00>     11      0.00000000      0.00000000      0.0
 <Feb04-2021> <20:24:00>  >>>> POPAN
 <Feb04-2021> <20:24:00>  >>>> DEBYE
 <Feb04-2021> <20:24:00>  NORMAL TERMINATION
 <Feb04-2021> <20:24:00>  END
 <Feb04-2021> <20:24:00>  DIRAC 2019  RunTime: Feb04-2021 20:24:00  Nodes: 1  Procs: 1
 <Feb04-2021> <20:24:01>  NORMAL TERMINATION
 <Feb04-2021> <20:24:01>  END
 <Feb04-2021> <20:24:01>  ADF 2019  RunTime: Feb04-2021 20:24:01  Nodes: 1  Procs: 1
 <Feb04-2021> <20:24:01>  Sulphur (DZ, 1s frozen)
 <Feb04-2021> <20:24:01>  RunType   : CREATE
 <Feb04-2021> <20:24:01>  Net Charge: 0 (Nuclei minus Electrons)
 <Feb04-2021> <20:24:01>  Symmetry  : ATOM
  Coordinates
    Atom         X           Y           Z   (Angstrom)
    1.S         0.000000    0.000000    0.000000
 <Feb04-2021> <20:24:01>  >>>> CORORT
 <Feb04-2021> <20:24:01>  >>>> CLSMAT
 <Feb04-2021> <20:24:01>  >>>> ORTHON
 <Feb04-2021> <20:24:01>  >>>> GENPT
 <Feb04-2021> <20:24:01>  Block Length=  81
 <Feb04-2021> <20:24:01>  >>>> PTBAS
 <Feb04-2021> <20:24:01>  >>>> CYCLE
 <Feb04-2021> <20:24:01>              |Error|         MaxErr       Wt(A-DIIS)
 <Feb04-2021> <20:24:01>      1      0.00000000      0.00000000
 <Feb04-2021> <20:24:01>      2     21.51261243      7.94990220    100.0
 <Feb04-2021> <20:24:01>      3      8.52424195      2.62505450    100.0
 <Feb04-2021> <20:24:02>      4      4.38544525      1.60446246    100.0
 <Feb04-2021> <20:24:02>      5      1.43256362      0.55140611    100.0
 <Feb04-2021> <20:24:02>      6      0.89172576      0.34614537    100.0
 <Feb04-2021> <20:24:02>      7      0.16625992      0.07286926     72.6
 <Feb04-2021> <20:24:02>      8      0.10006764      0.04307754     42.5
 <Feb04-2021> <20:24:02>      9      0.01425650      0.00614423      5.2
 <Feb04-2021> <20:24:02>     10      0.00065307      0.00028041      0.0
 <Feb04-2021> <20:24:02>     11      0.00000094      0.00000039      0.0
 <Feb04-2021> <20:24:02>     12      0.00000001      0.00000000      0.0
 <Feb04-2021> <20:24:02>  SCF converged
 <Feb04-2021> <20:24:02>     13      0.00000000      0.00000000      0.0
 <Feb04-2021> <20:24:02>  >>>> POPAN
 <Feb04-2021> <20:24:02>  >>>> DEBYE
 <Feb04-2021> <20:24:02>  NORMAL TERMINATION
 <Feb04-2021> <20:24:02>  END
 <Feb04-2021> <20:24:03>  ADF 2019  RunTime: Feb04-2021 20:24:03  Nodes: 1  Procs: 1
 <Feb04-2021> <20:24:03>  Au25 + Thiol + CYST compounds.
 <Feb04-2021> <20:24:03>  RunType   : SINGLE POINT
 <Feb04-2021> <20:24:03>  WARNING: Restricted Open-Shell calculation, Unrestricted setup may be needed
 <Feb04-2021> <20:24:03>  Net Charge: 0 (Nuclei minus Electrons)
 <Feb04-2021> <20:24:03>  Symmetry  : NOSYM
 <Feb04-2021> <20:24:03>  >>>> FRAGM
  Coordinates
    Atom         X           Y           Z   (Angstrom)
    1.Au        9.655898   10.699474   10.084730
    2.Au        9.412506   10.664860   12.940655
    3.Au       12.067310   10.842982   11.594186
    4.Au       10.287207   13.073127   11.483151
    5.Au       10.550596    8.313683   11.402965
    6.Au        7.412027   12.039826   11.155249
    7.Au        7.632663    9.123623   11.339120
    8.Au       11.623051   12.270062    8.756164
    9.Au       11.946384    9.311798    9.120318
   10.Au        8.686996   13.013873    8.746895
   11.Au        7.234409   10.445834    8.599813
   12.Au        9.093448    8.281026    8.724009
   13.Au        9.884902   10.663574    7.228809
   14.Au        6.507360   10.576299   13.767972
   15.Au        8.648586    7.924306   13.955279
   16.Au       10.368556   13.338506    6.081006
   17.Au       12.795248   10.821799    6.396107
   18.Au       13.518261    7.922330   11.359032
   19.Au       11.403888    6.345084    9.317743
   20.Au        7.990697   14.967898   10.856255
   21.Au        5.653447   13.144076    8.993177
   22.Au       13.174021   13.551102   10.939091
   23.Au       11.898751   12.477319   14.052726
   24.Au        6.149890    7.699875    9.057454
   25.Au        7.602485    8.712279    6.125476
   26.S        10.067546    6.287065   12.836197
   27.S         7.256271    9.105921   15.579312
   28.S         5.302835   12.358967   12.588672
   29.S        14.149824    9.362663    7.817397
   30.S         8.789256   14.926258    7.063850
   31.S        11.942758   12.220835    4.574695
   32.S         9.680017    6.100490    7.566902
   33.S        14.254419    9.929313   12.565489
   34.S        13.243209    5.555936   10.752230
   35.S         5.157975   11.345509    7.420848
   36.S        10.201164   15.610544   11.804606
   37.S         5.609393   15.217776   10.289356
   38.S        10.211498   11.229496   15.296639
   39.S        13.390801   14.123854    8.525925
   40.S        13.932647   13.597857   13.279410
   41.S         9.457824    9.702498    4.881119
   42.S         6.190317    7.030488   11.422683
   43.S         5.392058    7.822408    6.726066
   44.C         8.464437    4.766265    8.270789
   45.C         8.378260    3.569356    7.291438
   46.H         7.487618    5.260389    8.379295
   47.H         8.823937    4.455393    9.262673
   48.N         7.273786    2.673473    7.607867
   49.H         9.336627    3.019992    7.302923
   50.H         8.232182    3.944770    6.263750
   51.C        14.654638    5.204917    9.465477
   52.C        14.128381    4.489461    8.198194
   53.H        15.385869    4.584337   10.009378
   54.H        15.119397    6.160669    9.200198
   55.N        15.123662    4.498585    7.133608
   56.H        13.224593    5.024382    7.853437
   57.H        13.802092    3.466331    8.471140
   58.C        15.558405   10.706825   11.390101
   59.C        16.644518    9.704157   10.997094
   60.H        15.975362   11.550640   11.960259
   61.H        15.039977   11.074006   10.497085
   62.N        17.688318   10.418325   10.199274
   63.H        16.192938    8.930069   10.357165
   64.H        17.055801    9.214739   11.900589
   65.C         5.909461   12.122354    5.796654
   66.C         5.541952   11.272947    4.564712
   67.H         6.998682   12.176403    5.923380
   68.H         5.492966   13.138103    5.716911
   69.N         6.151697   11.782382    3.331846
   70.H         4.446136   11.236523    4.441153
   71.H         5.892893   10.238496    4.715630
   72.C         5.647931   16.521753    8.862768
   73.C         4.318688   16.524033    8.082881
   74.H         6.481529   16.262128    8.196258
   75.H         5.834858   17.495867    9.342195
   76.N         4.305443   17.505449    6.994022
   77.H         3.478013   16.740029    8.763096
   78.H         4.147853   15.518599    7.660299
   79.C         9.632024   15.864269   13.631048
   80.C         8.414732   16.801055   13.730856
   81.H        10.492284   16.285861   14.172287
   82.H         9.394837   14.876753   14.040388
   83.N         7.919376   16.822675   15.126425
   84.H         7.636986   16.443788   13.026508
   85.H         8.705543   17.814326   13.404520
   86.C         5.792690   13.838182   13.734507
   87.C         5.395907   13.596603   15.199260
   88.H         5.272454   14.716158   13.324120
   89.H         6.875891   13.984727   13.646948
   90.N         5.900659   14.712894   16.039490
   91.H         5.806898   12.621089   15.524139
   92.H         4.296968   13.528692   15.271064
   93.C         5.802120    7.857045   15.824741
   94.C         6.318143    6.543646   16.449348
   95.N         5.254824    5.574228   16.693033
   96.H         6.833863    6.764121   17.400173
   97.H         7.064947    6.094599   15.771586
   98.H         5.340015    7.668124   14.848138
   99.H         5.080902    8.360442   16.488762
  100.C        11.537841    6.183528   14.087756
  101.C        11.892030    7.524458   14.762368
  102.H        12.396562    5.802888   13.517961
  103.H        11.231453    5.441001   14.842107
  104.N        13.045676    7.378330   15.633648
  105.H        11.015987    7.889784   15.329951
  106.H        12.095690    8.273921   13.977603
  107.C        10.779308    8.309178    4.880798
  108.C        10.358574    7.106585    4.028836
  109.H        10.933021    8.005075    5.922309
  110.H        11.698160    8.769195    4.490372
  111.N        11.350130    6.011190    4.249356
  112.H        10.372958    7.380052    2.961165
  113.H         9.324994    6.815168    4.300659
  114.C         5.441993    5.969168    6.208556
  115.C         4.435789    5.173672    7.045729
  116.H         6.457668    5.580875    6.339957
  117.H         5.179507    5.958632    5.137758
  118.N         4.551064    3.725350    6.714408
  119.H         3.420755    5.591552    6.890539
  120.H         4.690123    5.289183    8.112684
  121.C         4.427609    7.638434   11.951643
  122.C         3.330292    7.120104   11.000853
  123.H         4.433775    8.736405   11.992178
  124.H         4.282056    7.235245   12.965632
  125.N         1.978125    7.486231   11.422503
  126.H         3.395796    6.021153   10.923948
  127.H         3.511242    7.528227    9.990842
  128.C        14.119787    7.707156    6.848524
  129.C        14.590661    7.823427    5.396677
  130.H        13.095642    7.317345    6.891524
  131.H        14.792223    7.036403    7.393755
  132.N        14.399545    6.483978    4.780556
  133.H        15.662026    8.084766    5.373086
  134.H        14.032555    8.637150    4.887715
  135.C        13.373839   13.516600    4.422677
  136.C        14.715449   12.823178    4.114270
  137.H        13.420582   14.079182    5.366363
  138.H        13.076012   14.190792    3.603324
  139.N        15.832441   13.757486    3.953429
  140.H        14.624689   12.227739    3.189918
  141.H        14.948074   12.112818    4.927613
  142.C        10.042814   16.197793    7.836136
  143.C         9.290547   17.370792    8.492364
  144.H        10.651385   15.663780    8.576062
  145.H        10.682382   16.543259    7.009083
  146.N        10.187091   18.311004    9.172209
  147.H         8.590508   16.971092    9.246620
  148.H         8.698375   17.915698    7.737173
  149.C         8.999875   12.603960   15.880077
  150.C         9.703738   13.625981   16.785468
  151.H         8.205673   12.081540   16.432560
  152.H         8.572215   13.085209   14.993056
  153.N         8.736917   14.682707   17.174256
  154.H        10.588626   14.028689   16.254658
  155.H        10.071724   13.111923   17.688966
  156.C        13.651583   15.458486   13.699256
  157.C        13.438375   15.656098   15.211361
  158.H        14.566571   15.966092   13.352934
  159.H        12.787794   15.809654   13.114746
  160.N        14.521841   15.223543   16.090617
  161.H        12.524210   15.118301   15.514172
  162.H        13.256842   16.735356   15.381578
  163.C        15.029261   13.183100    8.144948
  164.C        16.174327   13.665453    9.039125
  165.H        15.243338   13.387324    7.084837
  166.H        14.851927   12.108132    8.266734
  167.N        17.416449   12.850320    8.821581
  168.H        15.898180   13.558660   10.099897
  169.H        16.422520   14.721373    8.846356
  170.H         4.889042    5.041544   15.905862
  171.H         4.623896    5.720771   17.479225
  172.H         6.776626   14.496086   16.561524
  173.H         5.183510   15.136096   16.638810
  174.H        13.967595    7.632895   15.290022
  175.H        12.920149    7.278310   16.636517
  176.H         8.709666   15.492930   16.520217
  177.H         8.826275   14.978286   18.153361
  178.H        14.632780   14.214443   16.208640
  179.H        15.401311   15.740862   16.024323
  180.H        17.349678   11.850832    9.227237
  181.H        17.696423   12.848541    7.825800
  182.H        18.244860    9.765028    9.628708
  183.H        18.320809   11.003836   10.775692
  184.H        14.938525    5.060663    6.285373
  185.H        15.765177    3.711062    7.059763
  186.H         7.352417    2.120606    8.463285
  187.H         6.325401    2.981609    7.320207
  188.H        11.344482    5.314129    3.491623
  189.H        11.192790    5.554696    5.160238
  190.H         4.390352    3.531963    5.715781
  191.H         3.931617    3.140536    7.293089
  192.H         1.707841    8.466629   11.328718
  193.H         1.582601    6.998833   12.227727
  194.H         5.825259   12.691731    2.996835
  195.H         7.156977   11.624446    3.227735
  196.H         4.212570   18.489466    7.252810
  197.H         4.926070   17.325638    6.202141
  198.H         7.082064   16.222950   15.289577
  199.H         7.819664   17.763590   15.521505
  200.H        10.813328   18.856575    8.573668
  201.H        10.621101   17.952637   10.028153
  202.H        15.891526   14.271172    3.072435
  203.H        16.130527   14.285819    4.774854
  204.H        15.035444    6.308677    3.991870
  205.H        13.402583    6.321263    4.520768
  206.O        19.032520   14.746819    9.143659
  207.C        18.826885   13.646446    9.679889
  208.O        19.221306   12.888122   10.589037
 <Feb04-2021> <20:24:05>  >>>> CORORT
 <Feb04-2021> <20:24:12>  >>>> CLSMAT
 <Feb04-2021> <20:24:16>  >>>> ORTHON
 <Feb04-2021> <20:24:25>  >>>> GENPT
 <Feb04-2021> <20:24:35>  Block Length= 128
 <Feb04-2021> <20:25:09>  >>>> PTBAS
 <Feb04-2021> <20:31:01>  >>>> CYCLE
 <Feb04-2021> <20:36:03>              |Error|         MaxErr       Wt(A-DIIS)
 <Feb04-2021> <20:36:03>      1      8.13266553      0.40666194
 <Feb04-2021> <20:40:42>      2      4.73786098      0.36858394    100.0
 <Feb04-2021> <20:49:17>      3     13.55876158      0.71768526    100.0
 <Feb04-2021> <20:58:07>      4      4.29767676      0.37613886    100.0
 <Feb04-2021> <21:06:54>      5      7.08976419      0.42121619    100.0
 <Feb04-2021> <21:16:01>      6      1.47715457      0.12997416    100.0
 <Feb04-2021> <21:25:08>      7     21.53204856      1.38774970    100.0
 <Feb04-2021> <21:34:04>      8      6.34672424      0.54579224    100.0
 <Feb04-2021> <21:42:52>      9      3.02927156      0.23004437    100.0
 <Feb04-2021> <21:51:36>     10      3.22550465      0.48645861    100.0
 <Feb04-2021> <22:00:23>     11      0.87908892      0.10583877    100.0
 <Feb04-2021> <22:09:12>     12      4.28098548      0.61853105    100.0
 <Feb04-2021> <22:18:02>     13      1.34697586      0.13768995    100.0
 <Feb04-2021> <22:26:54>     14      1.05377834      0.20296279    100.0
 <Feb04-2021> <22:35:44>     15      0.70257032      0.11626548    100.0
 <Feb04-2021> <22:44:33>     16      0.75864498      0.15038784    100.0
 <Feb04-2021> <22:53:26>     17      0.37847156      0.05628983     55.8
 <Feb04-2021> <23:02:13>     18      0.35543702      0.05825156     55.8
 <Feb04-2021> <23:11:01>     19      0.19694355      0.01243719     11.6
 <Feb04-2021> <23:19:49>     20      0.10955942      0.00702525      6.1
 <Feb04-2021> <23:28:37>     21      0.06015196      0.00526586      4.3
 <Feb04-2021> <23:37:26>     22      0.03310238      0.00292327      1.9
 <Feb04-2021> <23:46:16>     23      0.01368754      0.00151579      0.5
 <Feb04-2021> <23:55:04>     24      0.00547602      0.00049359      0.0
 <Feb05-2021> <00:03:53>     25      0.00207341      0.00022088      0.0
 <Feb05-2021> <00:12:41>     26      0.00120261      0.00010258      0.0
 <Feb05-2021> <00:21:26>     27      0.00063572      0.00005813      0.0
 <Feb05-2021> <00:30:14>     28      0.00051885      0.00004625      0.0
 <Feb05-2021> <00:39:02>     29      0.00018289      0.00003800      0.0
 <Feb05-2021> <00:47:49>     30      0.00008328      0.00000683      0.0
 <Feb05-2021> <00:56:36>     31      0.00020809      0.00001289      0.0
 <Feb05-2021> <01:05:24>     32      0.00010886      0.00001018      0.0
 <Feb05-2021> <01:14:12>     33      0.00006591      0.00000581      0.0
 <Feb05-2021> <01:23:03>     34      0.00006070      0.00000641      0.0
 <Feb05-2021> <01:32:08>     35      0.00002692      0.00000239      0.0
 <Feb05-2021> <01:41:17>     36      0.00001687      0.00000171      0.0
 <Feb05-2021> <01:50:22>     37      0.00000653      0.00000065      0.0
 <Feb05-2021> <01:52:29>  SCF converged
 <Feb05-2021> <01:59:28>     38      0.00000261      0.00000023      0.0
 <Feb05-2021> <01:59:43>  WARNING: partially occupied orbitals
 <Feb05-2021> <01:59:43>   Solutions with partially occupied orbitals may not be
 <Feb05-2021> <01:59:43>   lowest in energy. You might consider lowering the
 <Feb05-2021> <01:59:43>   symmetry in the input and explicitly specifying integer
 <Feb05-2021> <01:59:43>   occupations. In that case always check that you obtain
 <Feb05-2021> <01:59:43>   an aufbau solution.
 <Feb05-2021> <02:06:10>  >>>> TOTEN
 <Feb05-2021> <03:50:10>  >>>> POPAN
 <Feb05-2021> <03:50:18>  >>>> DEBYE
 <Feb05-2021> <03:50:58>  >>>> AMETS
 <Feb05-2021> <03:51:45>   Bond Energy         -36.87413491 a.u.
 <Feb05-2021> <03:51:45>   Bond Energy       -1003.39626417 eV
 <Feb05-2021> <03:51:45>   Bond Energy      -23138.87       kcal/mol
 <Feb05-2021> <03:51:45>  >>>> POPUL
 <Feb05-2021> <03:52:46>  NORMAL TERMINATION with warnings
 <Feb05-2021> <03:52:48>  END
